LAMMPS (29 Sep 2021 - Update 2)
OMP_NUM_THREADS environment is not set. Defaulting to 1 thread. (src/comm.cpp:98)
  using 1 OpenMP thread(s) per MPI task
Reading data file ...
  orthogonal box = (0.0000000 0.0000000 0.0000000) to (25.260000 25.260000 25.260000)
  1 by 1 by 1 MPI processor grid
WARNING: Atom style in data file differs from currently defined atom style (src/read_data.cpp:516)
  reading atoms ...
  1584 atoms
  read_data CPU = 0.002 seconds
NequIP Coeff: type 1 is element O
NequIP Coeff: type 2 is element H
NequIP Coeff: type 3 is element Li
NequIP Coeff: type 4 is element Cl
Scanning dump file ...
Reading snapshot from dump file ...
  orthogonal box = (0.0000000 0.0000000 0.0000000) to (25.260000 25.260000 25.260000)
  1584 atoms before read
  1584 atoms in snapshot
  0 atoms purged
  1584 atoms replaced
  0 atoms trimmed
  0 atoms added
  1584 atoms after read
PPPM initialization ...
  using 12-bit tables for long-range coulomb (src/kspace.cpp:340)
  G vector (1/distance) = 0.22568151
  grid = 9 9 9
  stencil order = 5
  estimated absolute RMS force accuracy = 8.1621662e-06
  estimated relative force accuracy = 5.6683107e-07
  using double precision FFTW3
  3d grid and FFT values/proc = 2744 729
Neighbor list info ...
  update every 10 steps, delay 0 steps, check no
  max neighbors/atom: 2000, page size: 100000
  master list distance cutoff = 12
  ghost atom cutoff = 12
  binsize = 6, bins = 5 5 5
  3 neighbor lists, perpetual/occasional/extra = 3 0 0
  (1) pair nequip, perpetual
      attributes: full, newton off
      pair build: full/bin/atomonly
      stencil: full/bin/3d
      bin: standard
  (2) pair coul/long, perpetual, half/full from (1)
      attributes: half, newton off
      pair build: halffull/newtoff
      stencil: none
      bin: none
  (3) pair gauss/cut, perpetual, copy from (2)
      attributes: half, newton off
      pair build: copy
      stencil: none
      bin: none
Setting up Verlet run ...
  Unit style    : metal
  Current step  : 0
  Time step     : 0.0005
Per MPI rank memory allocation (min/avg/max) = 16.42 | 16.42 | 16.42 Mbytes
Step PotEng KinEng TotEng Temp Press Volume 
       0    -254646.9    66.501113    -254580.4          325    4387.4885    16117.588 
     100   -254666.78    79.022122   -254587.76    386.19188    5192.4145    16117.588 
     200   -254674.43    75.550107   -254598.88    369.22367    4964.3286    16117.588 
     300    -254676.7    68.363463   -254608.33    334.10156    4486.6748    16117.588 
     400   -254682.39    66.710731   -254615.68    326.02443    4377.7963    16117.588 
     500   -254687.03     66.41094   -254620.61    324.55931     4357.914    16117.588 
     600   -254689.77    66.445718   -254623.32    324.72928     4359.968    16117.588 
     700   -254689.51    64.981567   -254624.53    317.57377    4321.7639    16117.588 
     800   -254689.74    65.895648   -254623.84    322.04101    4396.0033    16117.588 
     900   -254689.97    66.914163   -254623.05    327.01863    4391.7152    16117.588 
    1000   -254690.85    66.310529   -254624.54    324.06859    4351.8008    16117.588 
    1100   -254691.96    65.222122   -254626.73     318.7494    4317.5836    16117.588 
    1200   -254695.07    67.593686   -254627.48    330.33955    4493.7499    16117.588 
    1300    -254694.6    66.488013   -254628.11    324.93598    4365.5984    16117.588 
    1400   -254695.33    66.182072   -254629.15     323.4408    4345.7545    16117.588 
    1500   -254695.92    67.195054   -254628.73    328.39138    4412.2491    16117.588 
    1600    -254694.4    66.120238   -254628.27    323.13861    4371.0154    16117.588 
    1700   -254693.46    65.921468   -254627.53     322.1672    4327.0924    16117.588 
    1800   -254692.93    66.293357   -254626.64    323.98467    4350.0945    16117.588 
    1900   -254694.22    67.302764   -254626.92    328.91778    4417.6935    16117.588 
    2000   -254694.07     64.89195   -254629.18     317.1358    4285.6559    16117.588 
    2100   -254694.26     64.28076   -254629.98    314.14883    4217.3793    16117.588 
    2200   -254695.36    68.467902   -254626.89    334.61197    4494.0848    16117.588 
    2300   -254694.01    67.637795   -254626.38    330.55512    4438.7521    16117.588 
    2400   -254694.65    67.205419   -254627.44    328.44204    4410.0318    16117.588 
    2500   -254695.33    66.687121   -254628.64    325.90904    4376.3897    16117.588 
    2600   -254693.07    65.283972   -254627.79    319.05167    4441.1361    16117.588 
    2700   -254693.88    69.826126   -254624.05    341.24979     4584.706    16117.588 
    2800   -254691.03    66.914051   -254624.12    327.01809    4392.3152    16117.588 
    2900   -254692.79    66.519063   -254626.27    325.08772     4365.236    16117.588 
    3000   -254693.78    65.673459   -254628.11    320.95514    4309.4378    16117.588 
    3100   -254695.37    66.302589   -254629.07    324.02979    4350.9905    16117.588 
    3200   -254694.78    65.051869   -254629.73    317.91734    4267.9848    16117.588 
    3300   -254694.26     64.77937   -254629.48     316.5856     4249.735    16117.588 
    3400   -254698.76    67.880403   -254630.88    331.74078    4484.1822    16117.588 
    3500   -254699.07    65.513975   -254633.56    320.17572    4298.1192    16117.588 
    3600   -254698.44    66.582341   -254631.86    325.39697    4467.4134    16117.588 
    3700   -254695.08    65.289667   -254629.79     319.0795    4284.8179    16117.588 
    3800   -254695.45    66.934414   -254628.52     327.1176    4392.7892    16117.588 
    3900   -254694.78    67.646298   -254627.13    330.59668    4440.3005    16117.588 
    4000   -254695.35    68.054623   -254627.29    332.59221    4467.1359    16117.588 
    4100   -254696.04    64.888683   -254631.15    317.11984    4258.4097    16117.588 
    4200    -254696.6    65.618145   -254630.98    320.68481    4307.3608    16117.588 
    4300   -254694.29     65.58966    -254628.7     320.5456    4304.7638    16117.588 
    4400   -254694.35    67.343676   -254627.01    329.11772    4454.3604    16117.588 
    4500   -254694.06    66.947083   -254627.12    327.17952    4394.2487    16117.588 
    4600   -254694.75    66.282956   -254628.47    323.93384     4350.439    16117.588 
    4700   -254694.83    62.709256   -254632.12    306.46868    4112.4115    16117.588 
    4800   -254697.52    64.903521   -254632.61    317.19235     4259.736    16117.588 
    4900    -254696.8     65.37765   -254631.42    319.50948    4290.2967    16117.588 
    5000   -254694.57    65.044582   -254629.52    317.88173    4296.8066    16117.588 
    5100   -254693.79    65.848699   -254627.94    321.81156    4358.4171    16117.588 
    5200   -254694.14    67.552452   -254626.59    330.13804    4434.0712    16117.588 
    5300   -254693.04     65.89079   -254627.15    322.01727    4346.6858    16117.588 
    5400   -254694.32     65.73377   -254628.59    321.24989    4313.4362    16117.588 
    5500   -254696.14     63.95124   -254632.18    312.53842    4239.1168    16117.588 
    5600   -254697.79    66.091114    -254631.7    322.99628    4337.3731    16117.588 
    5700   -254695.26    66.098459   -254629.16    323.03218    4336.4348    16117.588 
    5800    -254691.8    64.071369   -254627.73    313.12551    4231.0826    16117.588 
    5900   -254692.81    66.670352   -254626.14    325.82709    4374.5562    16117.588 
    6000   -254693.94    67.890328   -254626.05    331.78928    4455.2886    16117.588 
    6100    -254694.6     67.52143   -254627.08    329.98643    4430.7348    16117.588 
    6200   -254695.52    66.252727   -254629.27    323.78611    4346.7751    16117.588 
    6300   -254696.03    66.256631   -254629.78    323.80518     4348.035    16117.588 
    6400   -254695.66    67.351594   -254628.31    329.15641    4420.5712    16117.588 
    6500   -254694.07    67.085177   -254626.98     327.8544     4402.173    16117.588 
    6600   -254693.69    67.830414   -254625.86    331.49647    4451.6965    16117.588 
    6700   -254692.95     67.93221   -254625.01    331.99397     4458.666    16117.588 
    6800   -254695.86    68.467203   -254627.39    334.60855    4492.9769    16117.588 
    6900   -254695.84    65.715844   -254630.13    321.16228    4310.6446    16117.588 
    7000    -254696.8    66.572992   -254630.22    325.35128    4368.5051    16117.588 
    7100   -254696.32    66.796714   -254629.52    326.44464    4417.3098    16117.588 
    7200   -254694.43    67.099566   -254627.33    327.92472    4427.4915    16117.588 
    7300   -254692.42    67.204732   -254625.21    328.43868    4409.9352    16117.588 
    7400   -254696.78    68.657927   -254628.12    335.54064    4506.4198    16117.588 
    7500   -254695.51    65.000113   -254630.51    317.66441     4339.785    16117.588 
    7600   -254696.54    66.590976   -254629.95    325.43917    4404.8687    16117.588 
    7700   -254697.05    67.733165   -254629.32    331.02121    4445.1521    16117.588 
    7800   -254697.77    67.210633   -254630.56    328.46752    4410.0674    16117.588 
    7900    -254699.5    66.030744   -254633.47    322.70124    4367.0155    16117.588 
    8000   -254698.42    64.597147   -254633.83    315.69506     4287.514    16117.588 
    8100   -254699.43    68.199179   -254631.23    333.29868    4475.9757    16117.588 
    8200   -254697.21    66.687893   -254630.52    325.91282    4375.6908    16117.588 
    8300   -254697.38    67.243329   -254630.13    328.62731    4411.7555    16117.588 
    8400   -254696.15    66.089753   -254630.06    322.98963    4334.8833    16117.588 
    8500   -254697.79    68.166269   -254629.63    333.13784    4474.1871    16117.588 
    8600    -254696.1    64.687137   -254631.41    316.13485    4272.4614    16117.588 
    8700   -254698.47    65.993336   -254632.47    322.51842    4329.2881    16117.588 
    8800    -254699.6    66.766344   -254632.84    326.29622    4418.6306    16117.588 
    8900   -254698.06    65.221385   -254632.84    318.74579    4279.2832    16117.588 
    9000   -254698.06    66.988519   -254631.07    327.38202    4396.3658    16117.588 
    9100   -254698.14    68.079139   -254630.06    332.71203    4534.8891    16117.588 
    9200   -254696.69    67.225858   -254629.47    328.54193    4410.6898    16117.588 
    9300   -254699.02    67.216435   -254631.81    328.49588    4410.2774    16117.588 
    9400   -254699.09    64.654957   -254634.43    315.97758    4314.2622    16117.588 
    9500   -254698.52    64.311088   -254634.21    314.29705    4216.8214    16117.588 
    9600   -254697.61     66.48515   -254631.12    324.92198    4398.9071    16117.588 
    9700   -254696.15    66.083231   -254630.07    322.95775    4335.3658    16117.588 
    9800   -254696.19    66.655111   -254629.53    325.75261    4452.4987    16117.588 
    9900   -254696.23    65.249563   -254630.99     318.8835      4279.77    16117.588 
   10000   -254698.21    65.460925   -254632.74    319.91646    4294.0291    16117.588 
   10100    -254697.5    66.094236   -254631.41    323.01153    4334.5675    16117.588 
   10200   -254696.56    67.642831   -254628.92    330.57973    4516.6797    16117.588 
   10300   -254697.27     67.73452   -254629.54    331.02783    4482.3546    16117.588 
   10400   -254696.87    64.663261   -254632.21    316.01817    4240.6961    16117.588 
   10500   -254697.74    65.629633   -254632.12    320.74096    4304.2523    16117.588 
   10600   -254697.15    66.627855   -254630.52     325.6194     4399.801    16117.588 
   10700   -254696.13    66.419632   -254629.71    324.60179    4355.7879    16117.588 
   10800    -254695.7     66.40523   -254629.29    324.53141    4355.4226    16117.588 
   10900   -254695.21    65.418474   -254629.79      319.709    4418.2447    16117.588 
   11000   -254696.58    66.744857   -254629.84    326.19121    4428.9683    16117.588 
   11100   -254697.17    66.358803   -254630.81    324.30451    4387.4199    16117.588 
   11200   -254696.16    63.731042   -254632.43    311.46229    4177.1125    16117.588 
   11300   -254699.62    67.208678   -254632.41    328.45797     4407.744    16117.588 
   11400   -254697.57    67.858071   -254629.72    331.63164    4450.9612    16117.588 
   11500   -254695.22    66.841444   -254628.38    326.66324    4384.2738    16117.588 
   11600    -254696.3    66.807715   -254629.49    326.49841    4381.8104    16117.588 
   11700   -254697.22     66.55308   -254630.67    325.25397    4388.6341    16117.588 
   11800   -254697.67    64.179177   -254633.49    313.65238    4208.9473    16117.588 
   11900   -254699.43    64.577514   -254634.85    315.59911    4298.2345    16117.588 
   12000   -254696.29    65.650105   -254630.64    320.84101    4349.3254    16117.588 
   12100   -254695.88    66.766621   -254629.11    326.29757    4406.3066    16117.588 
   12200   -254694.91    67.456012   -254627.45    329.66672    4578.2534    16117.588 
   12300   -254696.48    67.229137   -254629.25    328.55795    4410.7569    16117.588 
   12400   -254697.28    66.120898   -254631.16    323.14183    4365.8644    16117.588 
   12500   -254696.18    65.762118   -254630.42    321.38843    4313.8497    16117.588 
   12600   -254695.73    67.997461   -254627.74    332.31286    4493.6956    16117.588 
   12700   -254693.53    67.545918   -254625.98    330.10611    4470.0857    16117.588 
   12800   -254693.76     66.25276   -254627.51    323.78627    4347.4589    16117.588 
   12900   -254694.13    65.743223   -254628.39    321.29609    4313.5328    16117.588 
   13000   -254694.28      65.6756   -254628.61    320.96561    4308.3197    16117.588 
   13100   -254693.11    65.241795   -254627.87    318.84554    4308.3943    16117.588 
   13200   -254692.22    65.374575   -254626.85    319.49445    4287.9974    16117.588 
   13300    -254695.5    70.900045    -254624.6    346.49818    4681.1784    16117.588 
   13400   -254693.75    66.180863   -254627.57    323.43489    4340.1339    16117.588 
   13500   -254694.64    65.483464   -254629.16    320.02661    4294.3876    16117.588 
   13600   -254696.06    66.372857   -254629.68    324.37319    4353.1152    16117.588 
   13700   -254697.05    67.130684   -254629.92     328.0768    4436.6994    16117.588 
   13800   -254695.47    66.917005   -254628.55    327.03252    4389.4501    16117.588 
   13900   -254694.49    67.095389   -254627.39    327.90431    4441.1716    16117.588 
   14000   -254693.78    67.036033   -254626.75    327.61423    4397.5781    16117.588 
   14100   -254695.97    66.133487   -254629.83    323.20336    4339.0269    16117.588 
   14200   -254696.25    64.772139   -254631.47    316.55027    4274.6033    16117.588 
   14300    -254694.7    63.711158   -254630.99    311.36511    4177.7984    16117.588 
   14400   -254696.46    67.228407   -254629.23    328.55438    4410.4614    16117.588 
   14500   -254696.53    69.242739   -254627.29     338.3987    4544.0576    16117.588 
   14600   -254696.26    67.703021   -254628.56    330.87389    4514.0675    16117.588 
   14700   -254696.61     65.39357   -254631.22    319.58729    4335.9753    16117.588 
   14800   -254696.27    65.985448   -254630.28    322.47987    4361.1711    16117.588 
   14900   -254694.26    66.524075   -254627.73    325.11222    4363.7591    16117.588 
   15000   -254695.04    67.873366   -254627.17    331.70639    4453.4829    16117.588 
   15100   -254695.45    66.849866    -254628.6     326.7044    4385.0104    16117.588 
   15200   -254697.12    67.029347   -254630.09    327.58155     4435.896    16117.588 
   15300   -254697.96    66.373156   -254631.58    324.37465    4354.2513    16117.588 
   15400    -254698.7    65.866757   -254632.83    321.89982     4321.314    16117.588 
   15500   -254697.43    66.026234    -254631.4     322.6792     4331.983    16117.588 
   15600   -254695.65    67.613692   -254628.03    330.43732    4436.8255    16117.588 
   15700    -254694.7    66.672885   -254628.03    325.83947    4450.2459    16117.588 
   15800   -254698.23    67.188978   -254631.04    328.36169    4406.3135    16117.588 
   15900   -254696.95    65.801987   -254631.15    321.58328     4431.306    16117.588 
   16000   -254698.98    68.681746   -254630.29    335.65705    4507.6286    16117.588 
   16100   -254696.34     65.12514   -254631.22    318.27543    4270.5031    16117.588 
   16200   -254698.43    65.646527   -254632.78    320.82352    4305.9821    16117.588 
   16300   -254699.03    63.737631    -254635.3    311.49449     4179.531    16117.588 
   16400   -254698.84    64.969097   -254633.87    317.51283    4309.9185    16117.588 
   16500   -254697.33    65.809861   -254631.52    321.62176    4409.8865    16117.588 
   16600    -254696.7    65.612465   -254631.08    320.65706    4336.7715    16117.588 
   16700   -254699.05    67.934582   -254631.12    332.00556     4457.486    16117.588 
   16800   -254700.01     68.27611   -254631.73    333.67465    4479.7479    16117.588 
   16900    -254701.1    66.930061   -254634.17    327.09633    4552.4439    16117.588 
   17000   -254701.26    65.326822   -254635.94    319.26108    4315.7617    16117.588 
   17100   -254699.19     65.39412   -254633.79    319.58997      4353.01    16117.588 
   17200    -254697.8    66.757069   -254631.04    326.25089    4378.1189    16117.588 
   17300   -254697.27    66.579245   -254630.69    325.38184    4367.3771    16117.588 
   17400    -254697.6    66.412669   -254631.18    324.56776    4356.7071    16117.588 
   17500   -254699.24    67.062547   -254632.17    327.74381    4400.2579    16117.588 
   17600   -254698.27    63.619845   -254634.65    310.91885    4204.2069    16117.588 
   17700   -254698.59    65.661687   -254632.93    320.89761    4306.5791    16117.588 
   17800   -254696.86    66.772636   -254630.09    326.32697    4380.4439    16117.588 
   17900   -254697.04    66.709773   -254630.33    326.01975    4375.9299    16117.588 
   18000   -254698.54    65.763242   -254632.78    321.39393    4313.8338    16117.588 
   18100   -254698.52    65.304062   -254633.21    319.14985    4283.4365    16117.588 
   18200   -254697.44    66.620169   -254630.81    325.58184     4370.344    16117.588 
   18300   -254694.81    66.821907   -254627.99    326.56776    4384.3668    16117.588 
   18400   -254693.24    64.569453   -254628.67    315.55971    4234.9727    16117.588 
   18500   -254696.34    66.708809   -254629.63    326.01504    4414.1427    16117.588 
   18600   -254695.54    64.096545   -254631.44    313.24855    4204.5741    16117.588 
   18700   -254698.83    65.954585   -254632.88    322.32904    4327.0057    16117.588 
   18800   -254699.91    63.746278   -254636.16    311.53675    4181.3344    16117.588 
   18900   -254700.34    64.541324    -254635.8    315.42224    4286.3643    16117.588 
   19000   -254697.87     64.97115    -254632.9    317.52286     4262.834    16117.588 
   19100    -254697.6    66.383421   -254631.21    324.42482    4409.9472    16117.588 
   19200   -254698.81    67.390353   -254631.42    329.34584    4420.6906    16117.588 
   19300   -254696.95    65.568709   -254631.38    320.44321    4332.8967    16117.588 
   19400   -254699.45    66.622357   -254632.83    325.59254    4472.6411    16117.588 
   19500   -254701.03    65.126197    -254635.9     318.2806    4270.7363    16117.588 
   19600   -254700.24    64.597904   -254635.64    315.69876     4236.505    16117.588 
   19700   -254699.65    67.131021   -254632.52    328.07844    4403.2133    16117.588 
   19800   -254696.94    65.702605   -254631.23    321.09758    4340.8601    16117.588 
   19900   -254697.57    66.392899   -254631.18    324.47114    4354.2274    16117.588 
   20000   -254696.64    65.447428   -254631.19     319.8505    4293.1647    16117.588 
   20100   -254698.02    65.446193   -254632.57    319.84446      4376.45    16117.588 
   20200   -254697.28    65.391851   -254631.89    319.57888    4322.6952    16117.588 
   20300   -254696.26     66.80458   -254629.46    326.48309    4383.0362    16117.588 
   20400   -254694.85    65.348057   -254629.51    319.36486    4286.6501    16117.588 
   20500   -254697.07    65.142681   -254631.92    318.36116    4368.3712    16117.588 
   20600   -254696.74    63.152611   -254633.59    308.63542    4247.5584    16117.588 
   20700    -254699.8    67.913939   -254631.89    331.90467    4455.6778    16117.588 
   20800   -254698.93    67.199766   -254631.73    328.41441    4408.8354    16117.588 
   20900   -254697.85      65.9943   -254631.85    322.52313    4327.6902    16117.588 
   21000    -254697.8    65.838136   -254631.96    321.75994    4318.3665    16117.588 
   21100   -254698.13    66.633523    -254631.5    325.64711    4371.6406    16117.588 
   21200   -254699.26    67.342068   -254631.92    329.10986    4418.9105    16117.588 
   21300   -254698.81    64.350642   -254634.46    314.49035    4220.5234    16117.588 
   21400   -254703.21    66.824904   -254636.39    326.58241    4435.8903    16117.588 
   21500   -254701.09    66.596554   -254634.49    325.46643    4369.1697    16117.588 
   21600   -254698.82    66.788477   -254632.03    326.40439    4449.5045    16117.588 
   21700   -254695.96    64.939852   -254631.02    317.36991    4258.3217    16117.588 
   21800    -254696.7    66.253574   -254630.45    323.79024    4345.3583    16117.588 
   21900    -254697.1    65.676285   -254631.42    320.96895    4307.3632    16117.588 
   22000   -254698.77    64.266309   -254634.51    314.07821    4213.9052    16117.588 
   22100   -254702.17    64.984022   -254637.18    317.58577    4287.0393    16117.588 
   22200   -254702.54    62.427024   -254640.12    305.08937    4092.9384    16117.588 
   22300   -254700.56    63.180314   -254637.38     308.7708    4142.2141    16117.588 
   22400   -254701.75    66.250861    -254635.5    323.77699    4432.8055    16117.588 
   22500    -254699.1    65.327173   -254633.77    319.26279    4313.3562    16117.588 
   22600    -254699.6    67.088264   -254632.51    327.86949    4427.0774    16117.588 
   22700   -254698.29    65.968239   -254632.32    322.39577    4493.2107    16117.588 
   22800      -254699    65.657876   -254633.34    320.87899    4307.9058    16117.588 
   22900   -254700.27    66.817765   -254633.45    326.54752    4385.2077    16117.588 
   23000    -254698.7    66.112857   -254632.59    323.10254    4396.5615    16117.588 
   23100   -254697.64    67.281201   -254630.35     328.8124    4414.9798    16117.588 
   23200   -254697.92    68.928056   -254628.99     336.8608    4524.7027    16117.588 
   23300   -254697.06    65.002722   -254632.06    317.67716    4286.2086    16117.588 
   23400   -254699.91    65.472267   -254634.43    319.97189       4322.1    16117.588 
   23500   -254700.77    66.241201   -254634.53    323.72978    4370.0073    16117.588 
   23600   -254700.81    67.736134   -254633.07    331.03571    4445.7404    16117.588 
   23700   -254698.02    67.397615   -254630.62    329.38133     4422.625    16117.588 
   23800   -254697.81    67.253539   -254630.56    328.67721    4497.1769    16117.588 
   23900   -254698.47    66.980368   -254631.49    327.34218    4395.1911    16117.588 
   24000   -254697.94    66.680226   -254631.26    325.87535    4374.9088    16117.588 
   24100   -254698.14    68.969878   -254629.17    337.06519    4550.5344    16117.588 
   24200   -254695.68    69.970672    -254625.7    341.95621    4593.3961    16117.588 
   24300   -254696.15    69.398237   -254626.75    339.15864    4554.8497    16117.588 
   24400   -254697.75    68.086883   -254629.66    332.74987    4500.5899    16117.588 
   24500   -254696.77    65.482921   -254631.29    320.02395    4296.0144    16117.588 
   24600   -254698.26    65.851848   -254632.41    321.82695    4320.7021    16117.588 
   24700   -254699.51     66.91615   -254632.59    327.02834    4390.9677    16117.588 
   24800   -254698.04    64.231963   -254633.81    313.91036    4213.6524    16117.588 
   24900   -254699.93    64.499386   -254635.43    315.21729    4231.3773    16117.588 
   25000   -254701.14    65.179571   -254635.96    318.54144    4276.5654    16117.588 
   25100   -254700.86    66.539551   -254634.32    325.18785    4395.4502    16117.588 
   25200    -254697.3    65.868356   -254631.43    321.90763    4384.1969    16117.588 
   25300   -254696.51    67.001166   -254629.51    327.44383    4398.4212    16117.588 
   25400   -254696.49    67.506063   -254628.98    329.91133    4431.5544    16117.588 
   25500   -254695.45    65.430164   -254630.02    319.76613    4321.0425    16117.588 
   25600   -254697.64    64.854931   -254632.78    316.95488    4256.2667    16117.588 
   25700   -254699.09    64.313625   -254634.78    314.30945    4269.6033    16117.588 
   25800   -254702.18    68.153164   -254634.03     333.0738    4474.5783    16117.588 
   25900   -254700.07    66.752067   -254633.32    326.22644    4381.5059    16117.588 
   26000   -254698.51    67.934651   -254630.57     332.0059    4459.4064    16117.588 
   26100   -254696.88    70.335765   -254626.55    343.74046    4618.8933    16117.588 
   26200    -254694.9    66.748452   -254628.15    326.20878    4380.8471    16117.588 
   26300   -254697.72    68.174574   -254629.55    333.17843    4499.2565    16117.588 
   26400   -254697.58     66.30775   -254631.27    324.05501    4352.1312    16117.588 
   26500   -254697.09    65.743443   -254631.34    321.29716    4346.5868    16117.588 
   26600   -254695.63    66.002303   -254629.63    322.56225    4395.9178    16117.588 
   26700   -254695.66    68.510058   -254627.15    334.81799    4532.8074    16117.588 
   26800    -254696.2    66.654001   -254629.55    325.74718    4436.0896    16117.588 
   26900   -254697.07    65.496682   -254631.57    320.09121    4296.2198    16117.588 
   27000   -254697.43    65.739947   -254631.69    321.28008    4313.2891    16117.588 
   27100   -254698.28    67.253772   -254631.02    328.67835    4438.0932    16117.588 
   27200   -254696.87    66.700306   -254630.17    325.97349     4422.206    16117.588 
   27300   -254697.62    67.186159   -254630.43    328.34791    4440.4517    16117.588 
   27400   -254696.38    65.333044   -254631.04    319.29149    4319.6414    16117.588 
   27500   -254697.77    67.196935   -254630.58    328.40058    4548.6416    16117.588 
   27600   -254698.54     67.23431   -254631.31    328.58323    4461.3101    16117.588 
   27700   -254697.32    63.528152   -254633.79    310.47073    4225.1597    16117.588 
   27800   -254699.04    66.136271    -254632.9    323.21697    4428.8977    16117.588 
   27900   -254695.42    65.404961   -254630.02    319.64296    4390.0233    16117.588 
   28000   -254696.77    68.043453   -254628.72    332.53763    4466.2962    16117.588 
   28100   -254694.07    65.900616   -254628.17    322.06529    4323.8679    16117.588 
   28200   -254693.96    65.809996   -254628.15    321.62242    4371.6434    16117.588 
   28300   -254693.72     64.90338   -254628.81    317.19166    4258.1772    16117.588 
   28400   -254695.69    67.119047   -254628.57    328.01993    4405.1067    16117.588 
   28500    -254696.2    67.846324   -254628.35    331.57423    4491.0695    16117.588 
   28600   -254696.14      66.0247   -254630.12    322.67171    4440.1965    16117.588 
   28700   -254698.17    66.754768   -254631.41    326.23965    4381.1941    16117.588 
   28800   -254698.07    65.204381   -254632.86    318.66269    4278.4935    16117.588 
   28900   -254699.07    66.399596   -254632.68    324.50387    4357.5866    16117.588 
   29000   -254697.59    67.666644   -254629.92    330.69611    4441.2718    16117.588 
   29100   -254695.73    67.233318    -254628.5    328.57838    4412.6404    16117.588 
   29200   -254695.43     67.60446   -254627.82    330.39221    4437.6221    16117.588 
   29300   -254696.55    67.043274   -254629.51    327.64961    4399.3774    16117.588 
   29400   -254699.94    66.372426   -254633.56    324.37109    4355.9904    16117.588 
   29500   -254697.13    64.030506    -254633.1    312.92581    4200.3343    16117.588 
   29600   -254695.92    65.257074   -254630.66    318.92021    4282.0824    16117.588 
   29700   -254694.56    65.930467   -254628.63    322.21118    4326.0184    16117.588 
   29800   -254694.94    66.308632   -254628.64    324.05932    4352.8994    16117.588 
   29900   -254693.78    66.194571   -254627.58    323.50189     4344.679    16117.588 
   30000    -254694.4    67.930663   -254626.47    331.98641    4558.4932    16117.588 
   30100   -254694.31    64.835149   -254629.48     316.8582     4253.298    16117.588 
   30200   -254695.12    63.902069   -254631.22    312.29812    4191.1971    16117.588 
   30300   -254696.21    64.675696   -254631.54    316.07894     4243.825    16117.588 
   30400   -254695.64     66.80034   -254628.84    326.46236    4383.6329    16117.588 
   30500   -254694.84    68.099392   -254626.74    332.81101    4468.9299    16117.588 
   30600   -254695.23    65.817379   -254629.41     321.6585    4318.0326    16117.588 
   30700   -254696.85    65.002702   -254631.85    317.67706    4264.4643    16117.588 
   30800   -254696.69    65.728411   -254630.96     321.2237     4368.265    16117.588 
   30900   -254696.79    66.681757    -254630.1    325.88283    4375.1877    16117.588 
   31000   -254698.63    68.203652   -254630.43    333.32054    4476.4555    16117.588 
   31100   -254697.13    65.113794   -254632.02    318.21998    4271.9319    16117.588 
   31200    -254699.5    65.851574   -254633.65    321.82561    4321.3163    16117.588 
   31300   -254699.07    65.032452   -254634.04    317.82245    4266.6778    16117.588 
   31400   -254698.16    67.303495   -254630.86    328.92135    4417.2852    16117.588 
   31500   -254698.52    68.549183   -254629.97     335.0092    4498.6575    16117.588 
   31600   -254696.77    65.554601   -254631.21    320.37427    4300.8101    16117.588 
   31700    -254700.2    67.772553   -254632.43     331.2137    4487.9004    16117.588 
   31800   -254697.68     65.63293   -254632.05    320.75707    4365.4622    16117.588 
   31900   -254697.92    66.997144   -254630.92    327.42417    4397.2396    16117.588 
   32000   -254695.09    65.421721   -254629.67    319.72486    4316.6837    16117.588 
   32100   -254696.88      66.1941   -254630.69    323.49958    4344.1807    16117.588 
   32200   -254698.52    65.535981   -254632.99    320.28327    4322.5924    16117.588 
   32300      -254699    64.719952   -254634.28    316.29522    4358.4401    16117.588 
   32400   -254699.83    67.368803   -254632.46    329.24052    4421.4648    16117.588 
   32500   -254697.08    68.163643   -254628.92    333.12501    4473.6313    16117.588 
   32600   -254697.53    68.207619   -254629.33    333.33993    4477.1526    16117.588 
   32700   -254699.74    67.942518    -254631.8    332.04434    4493.9665    16117.588 
   32800   -254696.59    63.983305    -254632.6    312.69513    4197.0375    16117.588 
   32900   -254696.66    65.996626   -254630.66     322.5345    4330.4092    16117.588 
   33000   -254696.36    67.206044   -254629.16     328.4451      4444.02    16117.588 
   33100   -254698.94    69.918722   -254629.02    341.70232    4628.6436    16117.588 
   33200   -254695.47     64.75585   -254630.71    316.47066    4247.8633    16117.588 
   33300   -254696.57    65.452537   -254631.12    319.87546    4411.0651    16117.588 
   33400   -254697.81    68.876105   -254628.94    336.60691    4521.9747    16117.588 
   33500    -254695.1    66.710563   -254628.39    326.02361    4409.0471    16117.588 
   33600   -254698.12    67.409563   -254630.71    329.43972    4425.0737    16117.588 
   33700   -254697.55    65.093223   -254632.45    318.11945    4271.7569    16117.588 
   33800   -254698.34    66.224044   -254632.12    323.64592    4378.0167    16117.588 
   33900   -254698.01    65.764351   -254632.24    321.39934    4314.8547    16117.588 
   34000   -254698.57     64.89801   -254633.67    317.16542    4295.5345    16117.588 
   34100   -254696.21    63.217632      -254633    308.95318     4147.049    16117.588 
   34200   -254695.73    66.297671   -254629.43    324.00575    4350.8665    16117.588 
   34300   -254694.24    66.008652   -254628.23    322.59327    4331.6245    16117.588 
   34400   -254694.91    68.045851   -254626.87    332.54935    4465.4086    16117.588 
   34500      -254694    67.316214   -254626.68    328.98351     4417.603    16117.588 
   34600   -254695.21     65.67513   -254629.53    320.96331    4372.9803    16117.588 
   34700   -254696.58     65.22804   -254631.35    318.77832    4278.8604    16117.588 
   34800   -254696.18    66.329234   -254629.85    324.16001    4352.1331    16117.588 
   34900   -254696.12    67.624318   -254628.49    330.48925    4437.9823    16117.588 
   35000   -254694.62    67.114358   -254627.51    327.99701    4402.6835    16117.588 
   35100   -254696.54    66.164999   -254630.38    323.35737    4432.9547    16117.588 
   35200   -254696.52    63.910048   -254632.61    312.33711    4191.3987    16117.588 
   35300   -254697.99      67.0481   -254630.94     327.6732    4399.6889    16117.588 
   35400   -254695.65      66.8545    -254628.8    326.72705    4387.6493    16117.588 
   35500   -254696.27    68.393228   -254627.87    334.24702     4488.484    16117.588 
   35600   -254696.93    66.967158   -254629.96    327.27763    4394.2598    16117.588 
   35700   -254697.43     65.09416   -254632.33    318.12403    4293.9872    16117.588 
   35800   -254696.09    65.037765   -254631.05    317.84842    4266.3655    16117.588 
   35900   -254695.31    66.044096   -254629.27    322.76649    4333.7064    16117.588 
   36000   -254695.79    67.805395   -254627.99     331.3742    4487.9109    16117.588 
   36100   -254694.92    64.509893   -254630.41    315.26864    4232.7758    16117.588 
   36200   -254700.97    67.502282   -254633.47    329.89285    4431.9303    16117.588 
   36300   -254700.72    66.840801   -254633.88     326.6601    4387.8438    16117.588 
   36400   -254700.71    67.169846   -254633.54    328.26819    4409.4671    16117.588 
   36500   -254696.47    65.251977   -254631.22     318.8953    4308.2192    16117.588 
   36600   -254696.22    67.777988   -254628.45    331.24026    4565.9812    16117.588 
   36700   -254695.83    65.910257   -254629.92     322.1124    4325.3568    16117.588 
   36800   -254697.59    67.059542   -254630.53    327.72912    4401.0758    16117.588 
   36900   -254697.04    67.004404   -254630.04    327.45965    4397.0052    16117.588 
   37000   -254694.41    66.847262   -254627.56    326.69167    4385.6741    16117.588 
   37100   -254693.84    69.653913   -254624.18    340.40816    4572.9538    16117.588 
   37200   -254693.49     67.61959   -254625.87    330.46615     4469.894    16117.588 
   37300   -254694.85    66.540988   -254628.31    325.19488     4365.824    16117.588 
   37400   -254695.51    66.229962   -254629.28    323.67485    4344.1984    16117.588 
   37500   -254695.38    64.809238   -254630.57    316.73158    4249.3235    16117.588 
   37600   -254694.71    63.413632    -254631.3    309.91106    4157.7669    16117.588 
   37700   -254693.71    65.156107   -254628.55    318.42677    4299.2057    16117.588 
   37800   -254692.38    66.060523   -254626.32    322.84678    4333.5653    16117.588 
   37900   -254696.46     67.97898   -254628.48    332.22253    4460.6818    16117.588 
   38000   -254697.79    66.550499   -254631.24    325.24135    4405.9267    16117.588 
   38100   -254698.23    66.133601    -254632.1    323.20392     4338.989    16117.588 
   38200   -254695.82    65.052802   -254630.77    317.92191    4267.4452    16117.588 
   38300   -254696.07    67.608171   -254628.46    330.41034    4433.0032    16117.588 
   38400   -254693.11    64.715431    -254628.4    316.27313    4244.5307    16117.588 
   38500   -254697.35    66.276008   -254631.07    323.89988    4348.9774    16117.588 
   38600   -254696.39    63.280122   -254633.11    309.25858    4204.2815    16117.588 
   38700   -254696.81     66.44444   -254630.36    324.72303    4360.8497    16117.588 
   38800   -254697.26    68.418652   -254628.84    334.37127    4524.4155    16117.588 
   38900   -254694.14    65.362498   -254628.77    319.43543    4288.0263    16117.588 
   39000   -254696.04    67.313283   -254628.73    328.96919    4418.1193    16117.588 
   39100   -254696.94    65.250344   -254631.68    318.88732     4281.948    16117.588 
   39200   -254698.51     65.28055   -254633.23    319.03494     4282.256    16117.588 
   39300   -254699.26    66.305162   -254632.95    324.04236    4349.8668    16117.588 
   39400   -254696.68    66.311048   -254630.37    324.07113    4350.5522    16117.588 
   39500   -254696.88    68.958275   -254627.92    337.00849    4527.6484    16117.588 
   39600   -254695.12    66.362148   -254628.76    324.32086    4355.6152    16117.588 
   39700   -254698.77    66.834953   -254631.94    326.63152    4386.6234    16117.588 
   39800   -254698.24     64.68773   -254633.55    316.13775    4276.9696    16117.588 
   39900    -254697.8     65.73672   -254632.06     321.2643    4313.3044    16117.588 
   40000   -254697.32    68.350693   -254628.97    334.03915    4486.5074    16117.588 
   40100   -254695.65     66.50705   -254629.14    325.02901    4363.8834    16117.588 
   40200   -254698.73    67.148516   -254631.58    328.16395    4433.9883    16117.588 
   40300   -254698.26    65.435636   -254632.83    319.79287    4293.0758    16117.588 
   40400   -254697.68    65.834906   -254631.85    321.74416    4390.1779    16117.588 
   40500   -254696.78     65.99259   -254630.79    322.51478    4355.0768    16117.588 
   40600   -254696.96    66.675841   -254630.28    325.85392    4426.0502    16117.588 
   40700    -254696.6    65.976076   -254630.62    322.43407    4382.3231    16117.588 
   40800   -254698.47    65.789599   -254632.68    321.52273    4317.8402    16117.588 
   40900   -254698.73    65.262988   -254633.47    318.94911    4282.1349    16117.588 
   41000   -254697.69    66.388493    -254631.3    324.44961     4448.336    16117.588 
   41100   -254697.79    67.627886   -254630.16    330.50669    4438.7137    16117.588 
   41200   -254697.37    66.015093   -254631.36    322.62475    4332.9076    16117.588 
   41300   -254699.64    64.937587    -254634.7    317.35883    4259.8722    16117.588 
   41400   -254700.67    64.443372   -254636.22    314.94354    4229.9571    16117.588 
   41500   -254698.92     65.41901    -254633.5    319.71162    4293.7284    16117.588 
   41600   -254697.31    65.375857   -254631.93    319.50072    4325.3132    16117.588 
   41700   -254698.01    67.684221   -254630.33    330.78201    4444.0321    16117.588 
   41800   -254695.65    65.667427   -254629.99    320.92566    4310.5969    16117.588 
   41900   -254696.36    65.151754    -254631.2     318.4055    4332.3129    16117.588 
   42000   -254699.19    65.187338   -254634.01     318.5794    4277.2673    16117.588 
   42100   -254697.71    64.196801   -254633.52    313.73851    4240.7066    16117.588 
   42200   -254695.96    65.974305   -254629.99    322.42542    4330.2831    16117.588 
   42300   -254694.64    65.458864   -254629.18    319.90639    4295.7655    16117.588 
   42400   -254697.11    68.005294    -254629.1    332.35114    4499.9499    16117.588 
   42500   -254699.37    68.132182   -254631.24    332.97126    4473.1226    16117.588 
   42600   -254698.92    64.996358   -254633.93    317.64606    4295.2378    16117.588 
   42700   -254698.42    64.962311   -254633.45    317.47966    4286.5089    16117.588 
   42800   -254699.92    68.044441   -254631.88    332.54245    4499.4831    16117.588 
   42900    -254700.1    68.169949   -254631.93    333.15583    4520.2114    16117.588 
   43000   -254698.45    65.450037      -254633    319.86325    4295.8273    16117.588 
   43100   -254698.46    65.322339   -254633.14    319.23917    4389.6579    16117.588 
   43200   -254698.71    67.586211   -254631.13    330.30302    4512.4304    16117.588 
   43300   -254696.23    68.383045   -254627.85    334.19726    4489.7593    16117.588 
   43400   -254696.74    67.858423   -254628.89    331.63336    4454.4197    16117.588 
   43500    -254697.8    66.345793   -254631.45    324.24093    4355.1998    16117.588 
   43600   -254697.94    66.178499   -254631.76    323.42334    4343.4773    16117.588 
   43700   -254696.98    65.519326   -254631.46    320.20187    4300.0692    16117.588 
   43800   -254698.12    68.198313   -254629.92    333.29445    4478.1814    16117.588 
   43900   -254696.85    67.194974   -254629.65    328.39099     4411.687    16117.588 
   44000   -254694.97    65.395899   -254629.57    319.59867    4319.9998    16117.588 
   44100   -254695.98    66.501394   -254629.48    325.00137    4412.1606    16117.588 
   44200   -254695.72     66.32108   -254629.39    324.12016    4378.3665    16117.588 
   44300   -254695.13    65.983789   -254629.14    322.47177    4359.6769    16117.588 
   44400   -254694.71     64.60739    -254630.1    315.74512     4328.439    16117.588 
   44500   -254694.64    63.694059   -254630.95    311.28155    4178.1852    16117.588 
   44600   -254697.22    67.199621   -254630.02     328.4137    4411.1317    16117.588 
   44700   -254697.41    68.989739   -254628.42    337.16225    4529.0869    16117.588 
   44800   -254699.88    69.708791   -254630.17    340.67636    4659.2008    16117.588 
   44900   -254698.73    65.234463   -254633.49    318.80971    4337.2783    16117.588 
   45000   -254700.02    66.779505   -254633.24    326.36054    4382.8055    16117.588 
   45100   -254698.89    67.440327   -254631.45    329.59007    4427.1702    16117.588 
   45200    -254698.7    68.210281   -254630.49    333.35294    4523.6373    16117.588 
   45300   -254696.69    64.520841   -254632.17    315.32214    4233.1963    16117.588 
   45400   -254699.99    65.215566   -254634.77    318.71736     4278.072    16117.588 
   45500   -254700.79    66.187495    -254634.6    323.46731    4383.0076    16117.588 
   45600   -254697.07    64.667825    -254632.4    316.04047    4276.2244    16117.588 
   45700   -254698.51    67.045225   -254631.47    327.65915    4399.3995    16117.588 
   45800   -254698.19    66.424695   -254631.77    324.62653    4357.6121    16117.588 
   45900      -254700    68.308946   -254631.69    333.83512    4483.5808    16117.588 
   46000   -254700.19    67.193479   -254632.99    328.38369    4409.0345    16117.588 
   46100   -254701.61    66.685949   -254634.93    325.90332    4375.5006    16117.588 
   46200   -254700.87    63.718577   -254637.15    311.40136    4326.0406    16117.588 
   46300   -254701.52     67.67922   -254633.84    330.75757    4439.9067    16117.588 
   46400   -254697.77    65.323712   -254632.45    319.24588    4370.1868    16117.588 
   46500    -254697.7    65.642263   -254632.06    320.80268    4374.4384    16117.588 
   46600   -254700.98    67.693384   -254633.28    330.82679    4442.5216    16117.588 
   46700   -254698.37    63.539483   -254634.83    310.52611    4167.3508    16117.588 
   46800   -254699.13    67.010129   -254632.12    327.48763    4397.3708    16117.588 
   46900   -254699.36    69.248271   -254630.12    338.42573    4545.4998    16117.588 
   47000   -254700.93    69.491463   -254631.44    339.61425    4596.5993    16117.588 
   47100   -254699.08    65.386995   -254633.69    319.55515    4316.2234    16117.588 
   47200   -254698.63    65.059115   -254633.58    317.95276    4268.2209    16117.588 
   47300   -254698.56    65.960078    -254632.6    322.35589    4327.5347    16117.588 
   47400   -254698.63    68.079575   -254630.55    332.71416    4467.9422    16117.588 
   47500   -254696.39    67.070541   -254629.32    327.78287     4429.445    16117.588 
   47600   -254696.12     68.98774   -254627.14    337.15248    4527.7336    16117.588 
   47700   -254697.89     67.57149   -254630.32    330.23108    4433.8934    16117.588 
   47800    -254696.5    64.661452   -254631.84    316.00933    4281.7903    16117.588 
   47900   -254697.61    66.585839   -254631.02    325.41407    4368.3668    16117.588 
   48000   -254696.63    67.874863   -254628.75     331.7137    4541.9071    16117.588 
   48100   -254693.98    66.735456   -254627.24    326.14526    4377.9578    16117.588 
   48200   -254695.53    66.834616    -254628.7    326.62987    4385.0274    16117.588 
   48300    -254697.7    65.101236   -254632.59    318.15861    4271.0117    16117.588 
   48400   -254699.12     66.82419    -254632.3    326.57892    4553.1416    16117.588 
   48500   -254697.14    66.611503   -254630.53    325.53949    4443.3288    16117.588 
   48600   -254695.82    66.908904   -254628.91    326.99293    4429.0927    16117.588 
   48700    -254696.1    68.243411   -254627.85    333.51485    4479.8288    16117.588 
   48800   -254696.93    67.195211   -254629.74    328.39215    4410.9705    16117.588 
   48900   -254695.71    63.038497   -254632.67    308.07772    4195.1518    16117.588 
   49000   -254700.34     67.56921   -254632.77    330.21994    4436.8477    16117.588 
   49100   -254698.78    66.918255   -254631.86    327.03863    4442.0947    16117.588 
   49200   -254699.47    69.082679   -254630.38    337.61646    4662.7386    16117.588 
   49300    -254697.4    68.454806   -254628.95    334.54796    4545.7785    16117.588 
   49400    -254697.3    69.437013   -254627.86    339.34814    4560.0644    16117.588 
   49500   -254698.01    68.392682   -254629.61    334.24435    4490.5674    16117.588 
   49600   -254698.84    66.039621    -254632.8    322.74463    4402.8847    16117.588 
   49700   -254698.87    65.746785   -254633.13    321.31349    4314.6536    16117.588 
   49800   -254697.74    66.455195   -254631.29    324.77559    4361.1534    16117.588 
   49900   -254697.36    66.998707   -254630.36    327.43181     4396.867    16117.588 
   50000   -254699.33    67.768347   -254631.56    331.19314    4447.8908    16117.588 
   50100      -254699    66.954824   -254632.04    327.21735    4429.3214    16117.588 
   50200   -254699.45    66.670966   -254632.78    325.83009    4375.3485    16117.588 
   50300   -254699.77    66.324237   -254633.44    324.13558    4351.7554    16117.588 
   50400    -254699.5    66.920714   -254632.58    327.05065    4392.1464    16117.588 
   50500    -254697.9    68.016201   -254629.88    332.40444    4464.4422    16117.588 
   50600   -254696.44    67.956781   -254628.49    332.11405    4492.7056    16117.588 
   50700   -254697.35    66.359202   -254630.99    324.30646    4401.8351    16117.588 
   50800   -254698.19    64.862757   -254633.33    316.99313    4282.6582    16117.588 
   50900   -254700.09    67.041696   -254633.05     327.6419    4400.4617    16117.588 
   51000   -254697.97     65.96207   -254632.01    322.36562    4328.4025    16117.588 
   51100   -254697.33    67.444598   -254629.88    329.61094    4463.6655    16117.588 
   51200   -254696.39    68.726978   -254627.67    335.87811    4511.0433    16117.588 
   51300   -254695.77    66.676705   -254629.09    325.85814    4449.3912    16117.588 
   51400   -254697.11    64.034436   -254633.08    312.94501    4365.4239    16117.588 
   51500   -254696.63    64.766364   -254631.87    316.52205    4248.7193    16117.588 
   51600   -254696.93    67.868307   -254629.06    331.68166    4695.6953    16117.588 
   51700   -254694.27    65.774979   -254628.49    321.45129    4314.5578    16117.588 
   51800   -254697.01    67.381233   -254629.63    329.30126    4422.4987    16117.588 
   51900   -254699.02    65.910413   -254633.11    322.11317    4325.3266    16117.588 
   52000   -254699.68    66.672597      -254633    325.83807    4376.3168    16117.588 
   52100   -254697.43    66.471464   -254630.96     324.8551     4362.916    16117.588 
   52200   -254697.79    68.649749   -254629.14    335.50068    4539.3033    16117.588 
   52300   -254695.49    65.973892   -254629.52     322.4234    4420.4127    16117.588 
   52400   -254696.23    65.330112    -254630.9    319.27716    4287.2808    16117.588 
   52500    -254698.3    67.208618   -254631.09    328.45767    4411.5249    16117.588 
   52600   -254698.45    67.181234   -254631.26    328.32384    4410.6567    16117.588 
   52700   -254696.31    65.855364   -254630.46    321.84413    4321.9387    16117.588 
   52800   -254694.31    65.926049   -254628.38    322.18958    4325.8398    16117.588 
   52900   -254696.14    71.070253   -254625.07    347.33001    4668.2816    16117.588 
   53000   -254693.65    67.162103   -254626.49    328.23035    4407.1921    16117.588 
   53100   -254695.11     66.06592   -254629.04    322.87315    4394.5337    16117.588 
   53200   -254698.57    67.702649   -254630.86    330.87207    4443.6881    16117.588 
   53300    -254697.3    66.038861   -254631.26    322.74091    4333.4875    16117.588 
   53400   -254696.68    68.056203   -254628.62    332.59993    4467.3417    16117.588 
   53500    -254694.2    68.111828   -254626.09    332.87178    4470.4901    16117.588 
   53600   -254694.87    67.728469   -254627.14    330.99826    4444.8753    16117.588 
   53700   -254694.89    65.809641   -254629.08    321.62068     4316.193    16117.588 
   53800   -254696.98    67.270649   -254629.71    328.76083    4455.2188    16117.588 
   53900   -254696.47    66.099806   -254630.37    323.03876    4337.7652    16117.588 
   54000   -254698.01    67.245712   -254630.77    328.63896    4444.2191    16117.588 
   54100   -254698.65    65.867453   -254632.79    321.90322    4366.8934    16117.588 
   54200   -254698.66    64.329031   -254634.33    314.38474    4219.4215    16117.588 
   54300   -254698.46    65.288499   -254633.17    319.07379    4283.3027    16117.588 
   54400   -254697.85    67.825907   -254630.02    331.47445    4451.4661    16117.588 
   54500    -254696.3    66.773413   -254629.52    326.33077    4411.1041    16117.588 
   54600   -254696.17    66.793197   -254629.38    326.42745    4384.0716    16117.588 
   54700   -254697.07    67.704544   -254629.37    330.88133    4444.0213    16117.588 
   54800   -254698.01    69.055808   -254628.96    337.48514    4532.6481    16117.588 
   54900   -254697.49    66.772085   -254630.72    326.32428    4382.4689    16117.588 
   55000   -254697.95    65.150661    -254632.8    318.40016    4274.0041    16117.588 
   55100   -254698.19    65.636106   -254632.55    320.77259    4306.3195    16117.588 
   55200   -254695.86    66.519794   -254629.34    325.09129    4470.4208    16117.588 
   55300   -254695.71    67.483107   -254628.22    329.79914    4453.7074    16117.588 
   55400   -254694.32    65.550304   -254628.77    320.35327    4300.9191    16117.588 
   55500   -254696.74    66.918489   -254629.83    327.03978    4392.3615    16117.588 
   55600    -254695.7    64.633585   -254631.07    315.87313    4241.7623    16117.588 
   55700   -254696.57    65.627662   -254630.94    320.73132    4306.6121    16117.588 
   55800   -254696.11    67.163444   -254628.95     328.2369    4409.4566    16117.588 
   55900   -254696.16    68.514465   -254627.65    334.83952    4497.6964    16117.588 
   56000   -254696.84     66.84351   -254629.99    326.67334    4386.1745    16117.588 
   56100   -254697.71    65.157542   -254632.56    318.43378    4275.0616    16117.588 
   56200   -254699.94    67.127185   -254632.81     328.0597    4405.8601    16117.588 
   56300   -254699.06    67.002096   -254632.06    327.44837     4397.875    16117.588 
   56400   -254696.54    67.085635   -254629.45    327.85664    4402.9487    16117.588 
   56500   -254693.26    66.221883   -254627.03    323.63536    4395.0501    16117.588 
   56600   -254694.96     67.68023   -254627.28    330.76251    4544.5975    16117.588 
   56700   -254696.55    66.760108   -254629.79    326.26574    4381.6295    16117.588 
   56800   -254698.13    67.105233   -254631.03    327.95242    4405.2052    16117.588 
   56900   -254695.66    63.913024   -254631.75    312.35165    4193.7464    16117.588 
   57000   -254693.99    65.557807   -254628.44    320.38993      4301.56    16117.588 
   57100    -254694.2    66.757205   -254627.44    326.25156    4381.2594    16117.588 
   57200   -254693.54    65.510826   -254628.03    320.16033    4298.6629    16117.588 
   57300   -254696.46     67.38846   -254629.07    329.33659    4422.7211    16117.588 
   57400   -254697.74    66.535455   -254631.21    325.16783    4390.6657    16117.588 
   57500   -254699.41    66.494493   -254632.91    324.96765    4364.7536    16117.588 
   57600   -254701.38    66.382504      -254635    324.42034    4357.7227    16117.588 
   57700   -254700.39    63.904591   -254636.48    312.31044    4291.9509    16117.588 
   57800   -254699.76    65.920468   -254633.84    322.16231     4362.773    16117.588 
   57900   -254700.44    68.556518   -254631.88    335.04504    4501.7527    16117.588 
   58000   -254698.22    66.684341   -254631.54    325.89546     4378.084    16117.588 
   58100   -254697.49    65.382455   -254632.11    319.53296    4314.8081    16117.588 
   58200   -254697.47     67.19105   -254630.27    328.37182    4449.0127    16117.588 
   58300   -254695.68     67.51454   -254628.17    329.95275    4458.7967    16117.588 
   58400   -254695.47    67.161579   -254628.31    328.22779    4409.2549    16117.588 
   58500   -254698.47     66.95435   -254631.51    327.21503    4480.5158    16117.588 
   58600   -254698.21    64.808294    -254633.4    316.72696    4254.4878    16117.588 
   58700   -254696.63    63.972914   -254632.66    312.64435    4249.0132    16117.588 
   58800   -254696.18    65.571211   -254630.61    320.45544    4338.8729    16117.588 
   58900   -254697.67    68.409673   -254629.26    334.32739    4492.2309    16117.588 
   59000   -254697.73    67.991378   -254629.74    332.28313    4464.7664    16117.588 
   59100   -254696.02    65.625653    -254630.4    320.72151    4307.0959    16117.588 
   59200   -254698.93    67.204896   -254631.73    328.43948    4452.3406    16117.588 
   59300   -254699.61    65.636796   -254633.98    320.77597    4307.7935    16117.588 
   59400   -254699.41    63.633186   -254635.78    310.98405    4211.4803    16117.588 
   59500   -254699.84    65.101977   -254634.73    318.16223    4319.4208    16117.588 
   59600   -254697.21    66.230994   -254630.97    323.67989     4347.581    16117.588 
   59700   -254698.43    67.498069   -254630.94    329.87226    4431.8506    16117.588 
   59800   -254698.46    65.776569   -254632.68    321.45905    4317.8619    16117.588 
   59900    -254698.8    64.667541   -254634.13    316.03908    4270.3082    16117.588 
   60000   -254700.35    67.065583   -254633.29    327.75864    4403.5504    16117.588 
   60100   -254699.62    69.750664   -254629.87      340.881    4671.7362    16117.588 
   60200   -254696.22    68.123259   -254628.09    332.92765    4473.2942    16117.588 
   60300   -254693.57    63.923938   -254629.65    312.40499    4194.5545    16117.588 
   60400   -254695.17     65.93215   -254629.24     322.2194    4326.0851    16117.588 
   60500   -254697.29    67.762744   -254629.52    331.16576    4479.4123    16117.588 
   60600   -254697.96    65.304874   -254632.65    319.15382    4341.8737    16117.588 
   60700   -254699.55     65.19499   -254634.35     318.6168    4279.5225    16117.588 
   60800   -254699.17    66.301407   -254632.87    324.02401    4352.9375    16117.588 
   60900   -254695.75    65.547282   -254630.21     320.3385    4302.4341    16117.588 
   61000    -254695.4    66.086121   -254629.31    322.97188     4435.135    16117.588 
   61100    -254695.3    67.502627    -254627.8    329.89453    4431.9992    16117.588 
   61200   -254696.54    68.314033   -254628.22    333.85999    4485.5942    16117.588 
   61300   -254696.25     64.33439   -254631.92    314.41093    4222.0338    16117.588 
   61400   -254698.93    66.410913   -254632.52    324.55918    4410.1045    16117.588 
   61500   -254699.49    67.854929   -254631.64    331.61628    4456.2256    16117.588 
   61600   -254698.22    67.602322   -254630.62    330.38176    4439.3347    16117.588 
   61700   -254697.59    70.223842   -254627.37    343.19348    4639.3959    16117.588 
   61800   -254694.42     68.09102   -254626.33    332.77009    4470.9728    16117.588 
   61900   -254695.15    66.742529   -254628.41    326.17983    4407.9468    16117.588 
   62000   -254697.47    67.793624   -254629.68    331.31668     4479.144    16117.588 
   62100   -254697.28    66.743006   -254630.54    326.18216    4382.0885    16117.588 
   62200   -254696.91    64.919844   -254631.99    317.27212      4260.71    16117.588 
   62300   -254699.75    65.784316   -254633.96    321.49692    4318.8392    16117.588 
   62400   -254701.21    64.547335   -254636.67    315.45162    4274.0312    16117.588 
   62500   -254697.63    63.281848   -254634.34    309.26701    4153.1979    16117.588 
   62600   -254697.95    66.172348   -254631.78    323.39328    4345.2491    16117.588 
   62700    -254696.1    65.975102   -254630.13    322.42931    4331.6482    16117.588 
   62800   -254694.44    66.017653   -254628.42    322.63727    4334.8998    16117.588 
   62900    -254694.4    67.972452   -254626.43    332.19064      4463.41    16117.588 
   63000   -254695.34     68.64175    -254626.7    335.46158    4508.3492    16117.588 
   63100   -254696.46    65.771426   -254630.69    321.43392    4318.9663    16117.588 
   63200   -254695.37    64.869642    -254630.5    317.02678    4258.7811    16117.588 
   63300   -254697.07    68.381334   -254628.69     334.1889    4491.6906    16117.588 
   63400   -254695.86     67.36616   -254628.49     329.2276    4424.7846    16117.588 
   63500   -254696.42    66.107434   -254630.31    323.07603    4342.1782    16117.588 
   63600   -254696.06    62.845313   -254633.21    307.13361    4199.9676    16117.588 
   63700   -254695.41    63.974829   -254631.43    312.65371    4225.2977    16117.588 
   63800   -254697.03     68.23315    -254628.8     333.4647    4482.2918    16117.588 
   63900   -254695.12    65.910748   -254629.21    322.11481    4357.1234    16117.588 
   64000   -254696.24    67.239783      -254629    328.60998    4415.7101    16117.588 
   64100   -254696.17    68.641231   -254627.53    335.45905     4508.615    16117.588 
   64200   -254695.51    69.783105   -254625.73    341.03954    4583.8505    16117.588 
   64300    -254693.9    65.702551   -254628.19    321.09732    4314.1565    16117.588 
   64400   -254695.97    65.801823   -254630.17    321.58247    4320.7104    16117.588 
   64500   -254696.47    66.454693   -254630.01    324.77314    4363.7124    16117.588 
   64600   -254698.29    68.939049   -254629.35    336.91453    4564.1161    16117.588 
   64700    -254699.2     67.52304   -254631.67     329.9943    4478.4771    16117.588 
   64800   -254700.48    65.909571   -254634.57    322.10905    4350.1677    16117.588 
   64900   -254698.27    63.845422   -254634.43    312.02128     4423.268    16117.588 
   65000   -254697.91    65.948154   -254631.96    322.29761    4328.8479    16117.588 
   65100   -254697.86    67.255626    -254630.6    328.68741    4415.7208    16117.588 
   65200   -254696.83     66.35745   -254630.47     324.2979    4356.1654    16117.588 
   65300   -254697.44    66.950602   -254630.49    327.19671    4395.9727    16117.588 
   65400   -254698.35    67.701544   -254630.64    330.86667    4446.7193    16117.588 
   65500   -254699.23    67.100537   -254632.13    327.92947    4407.0826    16117.588 
   65600   -254697.66    65.069401   -254632.59    318.00303    4348.3107    16117.588 
   65700   -254697.94    68.400534   -254629.54    334.28273    4492.7517    16117.588 
   65800   -254696.06    67.931412   -254628.13    331.99007    4462.5556    16117.588 
   65900   -254697.02    67.575186   -254629.44    330.24914    4439.0776    16117.588 
   66000   -254696.87    65.244933   -254631.62    318.86088    4284.1994    16117.588 
   66100   -254697.95    65.845474   -254632.11     321.7958    4323.9588    16117.588 
   66200   -254698.07    67.129579   -254630.94     328.0714    4438.1909    16117.588 
   66300   -254695.84    66.377337   -254629.47    324.39509    4391.8642    16117.588 
   66400   -254697.82     71.40118   -254626.42     348.9473    4690.3757    16117.588 
   66500   -254695.86     68.71546   -254627.14    335.82181    4572.0395    16117.588 
   66600   -254697.12     65.88554   -254631.23    321.99161    4365.3508    16117.588 
   66700    -254697.4    65.003769   -254632.39    317.68228    4267.0899    16117.588 
   66800    -254699.4    67.408806   -254631.99    329.43602    4427.1601    16117.588 
   66900   -254697.16     66.36905   -254630.79    324.35459    4358.4346    16117.588 
   67000   -254695.17    66.955041   -254628.21    327.21841    4397.3354    16117.588 
   67100   -254695.76    69.099114   -254626.66    337.69678    4539.9727    16117.588 
   67200   -254696.85       68.115   -254628.73    332.88728    4544.6452    16117.588 
   67300    -254697.1    65.466895   -254631.63    319.94564    4297.9239    16117.588 
   67400   -254697.94    66.996024   -254630.94     327.4187    4399.6525    16117.588 
   67500   -254697.16    67.141041   -254630.02    328.12741    4453.7367    16117.588 
   67600   -254697.45    67.952949    -254629.5    332.09532    4463.9917    16117.588 
   67700   -254695.84    64.524824   -254631.32    315.34161    4352.4263    16117.588 
   67800   -254697.59    64.398617   -254633.19    314.72482    4227.0307    16117.588 
   67900   -254696.21    64.644729   -254631.56     315.9276    4311.3275    16117.588 
   68000   -254696.07    66.964878    -254629.1    327.26648    4423.5625    16117.588 
   68100   -254696.33    67.051876   -254629.28    327.69165    4402.2458    16117.588 
   68200   -254698.79     67.54795   -254631.24    330.11604     4434.813    16117.588 
   68300   -254698.36    65.140844   -254633.22    318.35218    4274.9138    16117.588 
   68400   -254698.67     65.78697   -254632.89    321.50988    4317.2679    16117.588 
   68500   -254695.12    63.376632   -254631.75    309.73024    4158.0705    16117.588 
   68600   -254696.84    66.827818   -254630.01    326.59665     4386.766    16117.588 
   68700   -254695.49    65.917373   -254629.57    322.14718    4326.3789    16117.588 
   68800   -254696.12    67.344607   -254628.77    329.12227    4485.6875    16117.588 
   68900   -254695.18    66.188324      -254629    323.47136    4421.3747    16117.588 
   69000   -254697.86    66.823629   -254631.03    326.57618    4410.9395    16117.588 
   69100   -254699.86    65.289101   -254634.57    319.07673    4283.9921    16117.588 
   69200   -254700.04    65.435674    -254634.6    319.79306    4291.9413    16117.588 
   69300    -254696.7    64.765755   -254631.94    316.51907    4248.9177    16117.588 
   69400   -254694.96    65.002925   -254629.96    317.67815    4265.1977    16117.588 
   69500   -254697.85    67.555785   -254630.29    330.15432    4434.7227    16117.588 
   69600   -254697.94    65.908469   -254632.04    322.10367     4323.434    16117.588 
   69700   -254698.64    65.923454   -254632.71     322.1769    4326.6428    16117.588 
   69800   -254699.22    66.670578   -254632.55     325.8282    4373.8649    16117.588 
   69900   -254697.96    65.253984    -254632.7    318.90511    4306.5954    16117.588 
   70000   -254697.11    66.178804   -254630.94    323.42483    4367.9061    16117.588 
   70100   -254697.47    68.633336   -254628.83    335.42047    4506.6695    16117.588 
   70200    -254696.6    67.137268   -254629.47    328.10897    4406.2797    16117.588 
   70300   -254699.13    65.944036   -254633.19    322.27749    4329.1411    16117.588 
   70400   -254701.21    67.116908   -254634.09    328.00947    4406.8446    16117.588 
   70500    -254700.9    66.647615   -254634.26    325.71598    4375.5939    16117.588 
   70600   -254698.54    65.830098   -254632.71    321.72066    4394.8132    16117.588 
   70700   -254696.27    66.297357   -254629.97    324.00422    4352.2947    16117.588 
   70800   -254699.39    69.896076    -254629.5    341.59165    4644.1859    16117.588 
   70900   -254698.34    65.626887   -254632.72    320.72754    4308.0425    16117.588 
   71000   -254698.79      64.6158   -254634.17    315.78622    4280.5807    16117.588 
   71100   -254699.97    67.590768   -254632.38    330.32529    4437.9089    16117.588 
   71200   -254697.88    66.593608   -254631.29    325.45204    4373.1343    16117.588 
   71300   -254698.76    68.719428   -254630.04    335.84121    4592.1613    16117.588 
   71400    -254697.8    68.600843    -254629.2    335.26166    4504.7513    16117.588 
   71500   -254696.98     67.47567    -254629.5    329.76279    4430.0646    16117.588 
   71600   -254698.01    66.822538   -254631.19    326.57085    4434.5766    16117.588 
   71700   -254698.83    65.090446   -254633.74    318.10588    4271.6231    16117.588 
   71800   -254701.47    66.973071    -254634.5    327.30652    4396.7301    16117.588 
   71900   -254700.53    65.571871   -254634.96    320.45867    4303.6643    16117.588 
   72000   -254699.36    67.424724   -254631.94    329.51381    4426.6682    16117.588 
   72100   -254697.07    67.405194   -254629.66    329.41836    4425.8254    16117.588 
   72200    -254697.3     67.47257   -254629.83    329.74764    4430.3233    16117.588 
   72300    -254697.2     64.81799   -254632.38    316.77435    4253.8468    16117.588 
   72400   -254695.39    62.321326   -254633.07    304.57281    4088.8805    16117.588 
   72500   -254695.22    66.925951    -254628.3    327.07624    4393.8298    16117.588 
   72600   -254695.93    69.098671   -254626.83    337.69462    4537.5668    16117.588 
   72700   -254695.09    65.561187   -254629.53    320.40645    4303.1002    16117.588 
   72800   -254696.11    65.478522   -254630.64    320.00246    4297.9845    16117.588 
   72900   -254698.14    68.753501   -254629.39    336.00772      4514.45    16117.588 
   73000   -254695.13    66.626739    -254628.5    325.61395    4427.1837    16117.588 
   73100   -254695.76    66.596219   -254629.16    325.46479    4461.7274    16117.588 
   73200   -254695.68    64.596013   -254631.08    315.68952    4265.2157    16117.588 
   73300   -254697.36    65.265331   -254632.09    318.96056    4282.8629    16117.588 
   73400    -254695.1    65.537404   -254629.56    320.29022    4333.2646    16117.588 
   73500    -254695.2    68.293093   -254626.91    333.75765    4483.2933    16117.588 
   73600   -254694.09    66.602773   -254627.49    325.49682    4459.1247    16117.588 
   73700   -254697.46    67.584603   -254629.87    330.29516    4436.3354    16117.588 
   73800   -254698.25    66.949652    -254631.3    327.19207    4426.5622    16117.588 
   73900   -254695.65    63.577291   -254632.07    310.71088    4194.5629    16117.588 
   74000   -254696.58    65.398876   -254631.18    319.61322    4291.5925    16117.588 
   74100   -254697.24     66.86168   -254630.38    326.76214    4476.3666    16117.588 
   74200   -254697.45     67.10727   -254630.34    327.96237    4404.0642    16117.588 
   74300   -254698.81     68.06153   -254630.75    332.62597    4468.0109    16117.588 
   74400   -254696.82    65.424095    -254631.4    319.73646    4366.4432    16117.588 
   74500   -254696.35    64.536446   -254631.82    315.39841    4236.6061    16117.588 
   74600   -254697.39     69.27288   -254628.12      338.546    4549.2563    16117.588 
   74700   -254695.05     67.60821   -254627.44    330.41053    4439.0636    16117.588 
   74800   -254695.43    65.907078   -254629.52    322.09687    4326.6064    16117.588 
   74900   -254695.85    64.557343   -254631.29    315.50053    4237.4294    16117.588 
   75000   -254696.56    67.273586   -254629.28    328.77518    4416.6005    16117.588 
   75100   -254694.89    67.893157      -254627    331.80311    4458.1774    16117.588 
   75200   -254693.73    67.300442   -254626.43    328.90643    4418.5463    16117.588 
   75300   -254694.13    66.206518   -254627.93    323.56027    4346.9942    16117.588 
   75400   -254697.01    67.923047   -254629.09    331.94918     4461.001    16117.588 
   75500   -254693.41     63.73913   -254629.67    311.50181    4210.5184    16117.588 
   75600   -254696.45    67.823901   -254628.63    331.46464    4453.3693    16117.588 
   75700   -254694.96    68.119232   -254626.84    332.90797     4473.094    16117.588 
   75800   -254696.26    67.370804   -254628.89     329.2503    4424.7524    16117.588 
   75900   -254695.42    64.421694      -254631     314.8376    4227.9489    16117.588 
   76000   -254695.99    67.075372   -254628.92    327.80648    4430.5061    16117.588 
   76100   -254694.85    67.511619   -254627.34    329.93848    4433.0411    16117.588 
   76200   -254696.58     69.84505   -254626.73    341.34228     4618.156    16117.588 
   76300   -254695.17    66.573001   -254628.59    325.35133    4370.6592    16117.588 
   76400   -254696.03    65.383666   -254630.65    319.53889    4292.2556    16117.588 
   76500   -254697.08    66.524635   -254630.55    325.11495    4436.8822    16117.588 
   76600   -254697.45    66.837934   -254630.62    326.64609    4388.2037    16117.588 
   76700   -254697.81    66.804505      -254631    326.48272     4384.988    16117.588 
   76800   -254698.91    65.892072   -254633.02    322.02353    4324.9763    16117.588 
   76900   -254696.83    63.404477   -254633.42    309.86632    4159.3024    16117.588 
   77000   -254698.07    67.595268   -254630.48    330.34728    4554.3289    16117.588 
   77100   -254696.28    67.592705   -254628.68    330.33476    4437.4361    16117.588 
   77200      -254696     66.96768   -254629.03    327.28018    4441.2166    16117.588 
   77300   -254697.32    67.268925   -254630.05     328.7524    4413.7631    16117.588 
   77400   -254696.08    64.322725   -254631.75    314.35392    4220.4054    16117.588 
   77500   -254696.57    64.011556   -254632.56    312.83319    4199.7318    16117.588 
   77600   -254696.52     65.41215   -254631.11    319.67809    4314.7333    16117.588 
   77700   -254696.66     67.64456   -254629.02    330.58818    4440.0701    16117.588 
   77800   -254694.44    66.406355   -254628.03     324.5369    4358.6248    16117.588 
   77900    -254693.7    66.627397   -254627.07    325.61716    4404.1928    16117.588 
   78000   -254692.97    67.172733    -254625.8     328.2823    4409.6499    16117.588 
   78100   -254694.97     67.18153   -254627.79    328.32529    4435.6627    16117.588 
   78200   -254694.83    64.793404   -254630.04    316.65419    4296.8607    16117.588 
   78300   -254697.77    67.302134   -254630.47     328.9147    4419.1278    16117.588 
   78400   -254698.02    67.585387   -254630.44      330.299    4471.6962    16117.588 
   78500    -254696.5    66.484759   -254630.01    324.92008    4363.5031    16117.588 
   78600   -254695.88    67.745047   -254628.14    331.07928     4447.775    16117.588 
   78700   -254696.02    68.175339   -254627.85    333.18217    4530.0451    16117.588 
   78800   -254695.92    65.726168   -254630.19    321.21274    4314.1033    16117.588 
   78900   -254697.46    66.694712   -254630.76    325.94614    4379.8335    16117.588 
   79000   -254696.09    68.378486   -254627.71    334.17498     4490.284    16117.588 
   79100   -254694.45    68.129403   -254626.32    332.95768    4474.7728    16117.588 
   79200   -254696.61    68.779408   -254627.83    336.13434    4514.4274    16117.588 
   79300    -254697.8    67.861478   -254629.94    331.64829    4455.4696    16117.588 
   79400   -254697.88    66.981354    -254630.9      327.347    4480.3268    16117.588 
   79500   -254698.17    65.681827   -254632.49    320.99604    4312.3872    16117.588 
   79600   -254701.86    66.880055   -254634.98    326.85194    4391.3571    16117.588 
   79700   -254701.93    64.062296   -254637.87    313.08117    4205.3822    16117.588 
   79800   -254700.73    64.069315   -254636.66    313.11547     4264.947    16117.588 
   79900   -254701.38    66.071939    -254635.3    322.90257    4338.6518    16117.588 
   80000    -254700.3    67.196769   -254633.11    328.39976    4412.3931    16117.588 
   80100   -254698.64     67.91205   -254630.73    331.89544    4460.4384    16117.588 
   80200   -254697.69    67.568658   -254630.12    330.21724      4438.05    16117.588 
   80300    -254697.3    66.257865   -254631.04    323.81121    4350.5411    16117.588 
   80400   -254700.16    65.853154   -254634.31    321.83333    4388.0633    16117.588 
   80500   -254700.53    65.183387   -254635.35    318.56009    4281.3422    16117.588 
   80600   -254697.35    63.987426   -254633.36    312.71527    4202.5266    16117.588 
   80700   -254695.58    64.703789   -254630.88    316.21623    4286.8539    16117.588 
   80800   -254696.28    66.422045   -254629.86    324.61358    4363.6849    16117.588 
   80900   -254696.06    67.483281   -254628.58    329.79999    4433.4754    16117.588 
   81000    -254697.5    67.988206   -254629.52    332.26763    4550.0067    16117.588 
   81100    -254697.3    64.547207   -254632.75    315.45099    4238.8543    16117.588 
   81200   -254695.73    62.699834   -254633.03    306.42263    4116.5631    16117.588 
   81300   -254699.67    68.190704   -254631.48    333.25726    4561.9866    16117.588 
   81400   -254697.51    65.737945   -254631.77    321.27029    4379.8215    16117.588 
   81500   -254697.98    65.647854   -254632.33    320.83001    4312.0626    16117.588 
   81600   -254698.36    66.987126   -254631.37    327.37521    4400.6492    16117.588 
   81700   -254696.44    67.065078   -254629.38    327.75617    4405.6892    16117.588 
   81800   -254697.41    71.027138   -254626.38     347.1193    4668.6369    16117.588 
   81900   -254695.21    66.630278   -254628.58    325.63125    4377.9451    16117.588 
   82000   -254697.83    67.270036   -254630.56    328.75783    4419.3088    16117.588 
   82100   -254700.28    67.797601   -254632.48    331.33611    4455.4865    16117.588 
   82200   -254698.98    66.084369   -254632.89    322.96332     4371.417    16117.588 
   82300   -254700.61    68.225672   -254632.38    333.42815    4482.6173    16117.588 
   82400   -254695.49    67.566653   -254627.92    330.20744    4480.8464    16117.588 
   82500   -254696.26    68.373427   -254627.88    334.15025    4582.5354    16117.588 
   82600   -254697.82    68.646666   -254629.18    335.48561     4511.076    16117.588 
   82700    -254698.1    66.370908   -254631.73    324.36367    4446.7898    16117.588 
   82800   -254698.87    67.309655   -254631.56    328.95145    4465.6357    16117.588 
   82900   -254696.35    65.354653   -254630.99    319.39709    4291.6307    16117.588 
   83000   -254697.79    67.349513   -254630.44    329.14624    4423.8199    16117.588 
   83100   -254693.24    65.971251   -254627.26    322.41049     4331.627    16117.588 
   83200   -254694.94    68.673691   -254626.27    335.61769     4510.035    16117.588 
   83300   -254695.65    66.901174   -254628.75    326.95515     4431.707    16117.588 
   83400    -254696.6    67.139007   -254629.46    328.11747    4409.5685    16117.588 
   83500   -254697.01    67.687262   -254629.32    330.79687    4446.5187    16117.588 
   83600   -254697.64    67.040668    -254630.6    327.63688    4505.8207    16117.588 
   83700   -254698.82    65.509986   -254633.31    320.15623    4302.8146    16117.588 
   83800   -254699.53    66.064457   -254633.46      322.866    4339.7056    16117.588 
   83900   -254698.37    67.382816   -254630.99      329.309    4450.1291    16117.588 
   84000   -254697.52    67.008899   -254630.51    327.48162    4401.3486    16117.588 
   84100   -254697.73    67.082102   -254630.65    327.83937     4448.224    16117.588 
   84200   -254697.95    66.108551   -254631.84     323.0815     4376.502    16117.588 
   84300    -254697.8    65.856013   -254631.94    321.84731    4326.8467    16117.588 
   84400   -254699.13    69.028936    -254630.1    337.35382    4536.7425    16117.588 
   84500   -254693.79     65.77848   -254628.01    321.46839    4320.5555    16117.588 
   84600   -254694.17    66.516031   -254627.65     325.0729    4369.2219    16117.588 
   84700   -254696.21    67.312343    -254628.9    328.96459    4422.3344    16117.588 
   84800   -254695.94    64.354515   -254631.58    314.50928    4226.6501    16117.588 
   84900   -254697.35    64.502222   -254632.85    315.23115    4236.4996    16117.588 
   85000   -254699.36    67.594275   -254631.76    330.34243    4441.5483    16117.588 
   85100    -254697.6    68.023727   -254629.58    332.44122    4470.0351    16117.588 
   85200   -254696.67    66.916096   -254629.76    327.02808    4395.8508    16117.588 
   85300   -254698.09    65.524286   -254632.57    320.22611    4304.7238    16117.588 
   85400   -254699.85    65.672498   -254634.17    320.95045     4314.517    16117.588 
   85500    -254698.6    65.568697   -254633.03    320.44315    4308.4386    16117.588 
   85600   -254694.86    66.066081    -254628.8    322.87394    4375.7948    16117.588 
   85700   -254694.78    66.474746   -254628.31    324.87114    4418.7976    16117.588 
   85800   -254695.27    65.552036   -254629.72    320.36173    4306.2544    16117.588 
   85900   -254698.65    66.357566    -254632.3    324.29847    4411.2518    16117.588 
   86000   -254698.04    64.551473   -254633.49    315.47184    4292.5955    16117.588 
   86100    -254699.1    66.688702   -254632.41    325.91677    4381.4753    16117.588 
   86200   -254697.07    66.415808   -254630.65     324.5831    4363.0563    16117.588 
   86300   -254695.47    65.565275    -254629.9    320.42643    4306.9843    16117.588 
   86400   -254696.67    66.897365   -254629.77    326.93654    4394.6439    16117.588 
   86500   -254696.87    66.631297   -254630.24    325.63622    4377.6182    16117.588 
   86600   -254696.65    63.899454   -254632.75    312.28534    4233.4016    16117.588 
   86700    -254698.5    64.765868   -254633.74    316.51962    4254.5646    16117.588 
   86800   -254697.15    64.864553   -254632.29    317.00191    4346.3914    16117.588 
   86900   -254697.25    66.338367   -254630.91    324.20464    4358.3867    16117.588 
   87000   -254696.75    66.869924   -254629.88    326.80243     4392.863    16117.588 
   87100   -254695.55    66.530052   -254629.02    325.14143    4370.0918    16117.588 
   87200   -254696.76    66.882408   -254629.88    326.86344    4394.2133    16117.588 
   87300   -254699.44    66.496777   -254632.94    324.97881    4368.3084    16117.588 
   87400   -254698.83    64.665951   -254634.16    316.03131    4246.3001    16117.588 
   87500   -254697.04    64.964624   -254632.07    317.49097    4297.2858    16117.588 
   87600   -254697.73    67.807552   -254629.93    331.38475    4481.6324    16117.588 
   87700   -254698.75     67.19157   -254631.56    328.37436    4481.4933    16117.588 
   87800   -254699.72    66.042167   -254633.68    322.75707    4339.1236    16117.588 
   87900   -254698.22    65.205768   -254633.01    318.66947    4283.4427    16117.588 
   88000   -254697.72    66.927876    -254630.8    327.08565    4397.3345    16117.588 
   88100   -254698.98    68.355663   -254630.63    334.06344    4492.1383    16117.588 
   88200   -254699.17    67.927516   -254631.25    331.97103    4463.6305    16117.588 
   88300   -254699.52    66.842322   -254632.68    326.66753    4390.7663    16117.588 
[...]
  408900   -254702.06    67.367916    -254634.7    329.23618    4428.4598    16117.588 
  409000   -254701.37    66.173154   -254635.19    323.39722    4348.3532    16117.588 
  409100   -254699.52    67.277573   -254632.24    328.79467    4451.1075    16117.588 
  409200   -254697.61    68.342558   -254629.27    333.99939    4492.0839    16117.588 
  409300   -254696.83    66.682141   -254630.14    325.88471    4380.4115    16117.588 
  409400   -254699.44    67.748118    -254631.7    331.09428     4479.644    16117.588 
  409500      -254697    63.804256   -254633.19    311.82009    4189.8381    16117.588 
  409600   -254695.22    63.996674   -254631.23    312.76047    4203.2506    16117.588 
  409700   -254694.39    66.568511   -254627.83    325.32938    4401.0994    16117.588 
  409800   -254696.02     68.86755   -254627.15     336.5651    4553.9523    16117.588 
  409900   -254695.63    66.582683   -254629.04    325.39865    4450.5853    16117.588 
  410000   -254696.84    65.492718   -254631.35    320.07183    4359.1559    16117.588 
  410100   -254694.67    63.741529   -254630.92    311.51354    4185.0994    16117.588 
  410200    -254695.5    66.315369   -254629.18    324.09224    4357.2808    16117.588 
  410300   -254695.04    66.337139    -254628.7    324.19863    4358.1002    16117.588 
  410400   -254696.25    67.606072   -254628.65    330.40008    4484.1393    16117.588 
  410500   -254696.03    65.793361   -254630.24    321.54112    4322.8708    16117.588 
  410600   -254697.77    66.633828   -254631.14     325.6486    4379.7755    16117.588 
  410700   -254696.02    65.404681   -254630.62    319.64159    4298.2579    16117.588 
  410800    -254695.9    66.339041   -254629.56    324.20793    4360.1861    16117.588 
  410900   -254696.95     68.36308   -254628.59    334.09968    4521.8042    16117.588 
  411000   -254695.73    67.766306   -254627.96    331.18317     4486.965    16117.588 
  411100   -254698.51    69.653006   -254628.85    340.40373    4579.7957    16117.588 
  411200   -254699.51    67.245586   -254632.27    328.63834    4419.6729    16117.588 
  411300   -254699.92    65.934917   -254633.98    322.23292    4332.8562    16117.588 
  411400   -254699.52    66.132205   -254633.39     323.1971    4345.0584    16117.588 
  411500   -254697.02    66.320352    -254630.7    324.11659    4437.7586    16117.588 
  411600   -254696.25    65.531887   -254630.72    320.26326    4382.8901    16117.588 
  411700    -254697.5    65.886936   -254631.61    321.99843    4328.3488    16117.588 
  411800   -254696.88    65.010866   -254631.86    317.71696    4302.1745    16117.588 
  411900   -254698.67     67.64527   -254631.02    330.59165    4445.6394    16117.588 
  412000   -254694.68    65.278549    -254629.4    319.02516    4288.0914    16117.588 
  412100   -254695.48    67.928702   -254627.55    331.97682    4462.2178    16117.588 
  412200   -254693.63    66.271433   -254627.36    323.87752    4353.2365    16117.588 
  412300   -254696.05    67.046993      -254629    327.66779    4434.1082    16117.588 
  412400    -254697.7    67.846973   -254629.85     331.5774    4458.4831    16117.588 
  412500   -254696.82    66.555051   -254630.27     325.2636    4374.1598    16117.588 
  412600   -254697.38    67.264799   -254630.12    328.73224    4450.8367    16117.588 
  412700   -254696.55    66.438365   -254630.11    324.69334    4396.9672    16117.588 
  412800    -254695.7    66.377437   -254629.32    324.39558    4392.7799    16117.588 
  412900   -254694.81    67.404605    -254627.4    329.41549    4429.2119    16117.588 
  413000   -254696.75    70.924555   -254625.83    346.61796    4660.5512    16117.588 
  413100   -254696.35    66.698974   -254629.66    325.96697    4449.2432    16117.588 
  413200   -254696.08    65.296809   -254630.78     319.1144    4289.9787    16117.588 
  413300   -254698.02     67.84544   -254630.18    331.56991    4458.2071    16117.588 
  413400   -254695.85    65.198884   -254630.65    318.63583    4309.6409    16117.588 
  413500   -254695.71    65.467245   -254630.24    319.94735    4302.1779    16117.588 
  413600   -254693.76     66.69324   -254627.06    325.93895    4383.0591    16117.588 
  413700   -254693.82    67.198497   -254626.62    328.40821    4414.9508    16117.588 
  413800   -254695.19    67.066375   -254628.12    327.76251    4405.6406    16117.588 
  413900   -254697.18    66.457414   -254630.72    324.78644     4366.154    16117.588 
  414000   -254699.38    66.109611   -254633.27    323.08667    4343.2463    16117.588 
  414100   -254699.23    65.483009   -254633.75    320.02439     4302.161    16117.588 
  414200   -254698.71    68.853958   -254629.85    336.49867     4525.323    16117.588 
  414300   -254696.06    68.975109   -254627.08    337.09076    4579.1075    16117.588 
  414400   -254695.33    66.335649   -254628.99    324.19135    4358.4519    16117.588 
  414500   -254697.25    66.605866   -254630.65    325.51194    4450.2977    16117.588 
  414600   -254697.72    65.528721   -254632.19    320.24779    4334.9559    16117.588 
  414700   -254696.96     65.33745   -254631.62    319.31302    4292.5978    16117.588 
  414800   -254696.88    67.999211   -254628.88    332.32141    4469.4756    16117.588 
  414900   -254696.37    68.685195   -254627.68    335.67391    4514.7478    16117.588 
  415000   -254695.27    67.636112   -254627.63    330.54689    4487.7566    16117.588 
  415100   -254694.44    67.421952   -254627.02    329.50026    4431.2118    16117.588 
  415200   -254694.56    67.074166   -254627.48    327.80059     4566.573    16117.588 
  415300   -254693.73    64.446542   -254629.28    314.95903    4233.9998    16117.588 
  415400   -254695.43    65.087103   -254630.35    318.08954    4275.7981    16117.588 
  415500   -254696.86    66.618299   -254630.24     325.5727    4377.0522    16117.588 
  415600   -254696.12    67.244091   -254628.88    328.63103    4419.4046    16117.588 
  415700   -254695.72    68.286721   -254627.43    333.72651    4488.3209    16117.588 
  415800   -254696.03    68.163791   -254627.86    333.12574    4533.0329    16117.588 
  415900    -254695.4    65.158999   -254630.24     318.4409    4280.5776    16117.588 
  416000   -254697.88    65.943903   -254631.93    322.27684    4403.0693    16117.588 
  416100   -254697.64    66.606915   -254631.04    325.51707    4408.0276    16117.588 
  416200   -254697.16    69.415112   -254627.75    339.24111    4563.2976    16117.588 
  416300   -254696.35    68.447851    -254627.9    334.51397    4499.7573    16117.588 
  416400    -254697.7    67.631571   -254630.07     330.5247    4446.1652    16117.588 
  416500   -254698.43    66.667518   -254631.76    325.81324    4381.6944    16117.588 
  416600   -254697.89    65.566285   -254632.32    320.43137    4335.4028    16117.588 
  416700   -254698.42     65.81051   -254632.61    321.62493    4378.0726    16117.588 
  416800   -254697.64    67.760509   -254629.88    331.15484    4477.6653    16117.588 
  416900   -254696.79    69.232957   -254627.56    338.35089     4551.522    16117.588 
  417000   -254698.32    67.751125   -254630.57    331.10898    4453.6812    16117.588 
  417100   -254697.23    64.558605   -254632.67     315.5067    4279.8921    16117.588 
  417200   -254698.18    66.021739   -254632.16    322.65723    4338.4717    16117.588 
  417300   -254697.68    67.061232   -254630.62    327.73738    4407.0174    16117.588 
  417400   -254696.04    66.460486   -254629.58    324.80145     4396.005    16117.588 
  417500   -254696.46    67.244848   -254629.21    328.63474    4446.4836    16117.588 
  417600    -254696.6    66.042445   -254630.56    322.75843     4366.559    16117.588 
  417700   -254694.89    62.047382   -254632.84    303.23401    4108.6085    16117.588 
  417800   -254696.42    63.439618   -254632.98    310.03806    4205.4422    16117.588 
  417900   -254697.52    67.284138   -254630.24    328.82675    4445.7775    16117.588 
  418000   -254696.64    67.035606   -254629.61    327.61214    4463.0412    16117.588 
  418100   -254697.58    66.800069   -254630.78    326.46104    4391.3726    16117.588 
  418200   -254696.28    63.790398   -254632.49    311.75237      4272.96    16117.588 
  418300   -254698.51    67.959057   -254630.55    332.12517    4551.4501    16117.588 
  418400   -254696.73    69.392948   -254627.33    339.13279    4563.6246    16117.588 
  418500   -254694.08    66.333467   -254627.74    324.18069    4382.8524    16117.588 
  418600   -254695.04    66.356037   -254628.68    324.29099    4361.4095    16117.588 
  418700   -254697.49    67.896142   -254629.59    331.81769    4464.1305    16117.588 
  418800   -254696.67    65.137187   -254631.53    318.33431    4280.1469    16117.588 
  418900   -254696.36    65.169149   -254631.19    318.49051    4282.3883    16117.588 
  419000   -254695.21    67.050338   -254628.16    327.68414    4406.4571    16117.588 
  419100   -254693.75    68.196697   -254625.55    333.28655    4484.2996    16117.588 
  419200   -254694.84    67.902726   -254626.94    331.84988    4498.0471    16117.588 
  419300   -254697.29     67.74091   -254629.55    331.05906    4454.1463    16117.588 
  419400   -254698.38    66.523303   -254631.85    325.10844    4373.6902    16117.588 
  419500   -254698.44    65.637015    -254632.8    320.77704    4314.6751    16117.588 
  419600   -254697.59    65.632219   -254631.96     320.7536    4314.3252    16117.588 
  419700   -254696.44    67.784336   -254628.66    331.27128     4455.956    16117.588 
  419800   -254694.06    65.725665   -254628.34    321.21028    4355.8758    16117.588 
  419900   -254696.48    66.495308   -254629.99    324.97163     4371.762    16117.588 
  420000   -254697.52      63.9037   -254633.61    312.30609     4198.102    16117.588 
  420100   -254699.13    65.661325   -254633.47    320.89584    4316.5312    16117.588 
  420200      -254699    67.912076   -254631.09    331.89557    4527.9737    16117.588 
  420300   -254698.01      67.6476   -254630.36    330.60304    4499.2245    16117.588 
  420400    -254699.1    66.244868   -254632.85     323.7477    4381.6154    16117.588 
  420500   -254699.81    64.115551   -254635.69    313.34143    4212.4688    16117.588 
  420600   -254699.97    66.718252   -254633.25    326.06119     4386.052    16117.588 
  420700   -254696.88    65.529637   -254631.35    320.25226     4306.869    16117.588 
  420800   -254698.07    67.676511    -254630.4    330.74433    4449.8562    16117.588 
  420900   -254697.46     67.10555   -254630.36    327.95397    4412.3262    16117.588 
  421000   -254698.46    64.883827   -254633.58     317.0961    4265.0115    16117.588 
  421100    -254698.5    64.459882   -254634.04    315.02423    4237.4634    16117.588 
  421200   -254697.64    65.756779   -254631.89    321.36234    4420.9989    16117.588 
  421300   -254697.81    67.048769   -254630.76    327.67647    4408.8264    16117.588 
  421400   -254697.38    66.696063   -254630.69    325.95275    4471.7863    16117.588 
  421500   -254698.09     67.36438   -254630.73     329.2189    4428.9351    16117.588 
  421600   -254699.42    66.186911   -254633.23    323.46445     4420.765    16117.588 
  421700   -254700.95    65.704406   -254635.25    321.10638    4319.4464    16117.588 
  421800   -254699.89    66.010254   -254633.88    322.60111    4340.2392    16117.588 
  421900   -254699.53    67.180968   -254632.35    328.32255    4488.8988    16117.588 
  422000   -254698.28    66.440436   -254631.84    324.70346    4367.4811    16117.588 
  422100   -254697.69    66.553541   -254631.14    325.25622    4375.6874    16117.588 
  422200   -254697.38    67.204522   -254630.18    328.43765     4447.504    16117.588 
  422300    -254696.7    66.926207   -254629.78    327.07749    4400.4177    16117.588 
  422400   -254696.54    69.271584   -254627.27    338.53967    4556.6608    16117.588 
  422500   -254694.54    67.675602   -254626.86    330.73989     4449.567    16117.588 
  422600   -254698.01    68.533337   -254629.48    334.93175    4506.7916    16117.588 
  422700   -254698.29    66.247916   -254632.05    323.76259    4355.7972    16117.588 
  422800   -254697.21    64.267666   -254632.94    314.08484    4225.1992    16117.588 
  422900   -254695.66    64.581795   -254631.07    315.62003    4245.7301    16117.588 
  423000   -254694.48    65.146081   -254629.34    318.37777    4282.2201    16117.588 
  423100   -254694.97    66.277966   -254628.69    323.90945    4476.0928    16117.588 
  423200   -254693.58    65.312469   -254628.27    319.19093    4293.4817    16117.588 
  423300   -254694.02    66.400036   -254627.62    324.50602    4364.5095    16117.588 
  423400   -254693.22    68.058684   -254625.16    332.61206    4502.1822    16117.588 
  423500    -254692.6    70.092112    -254622.5     342.5497    4610.5351    16117.588 
  423600   -254694.49    69.121975   -254625.37    337.80851    4545.0385    16117.588 
  423700   -254696.79    69.032847   -254627.75    337.37293    4539.6433    16117.588 
  423800   -254695.67    65.601239   -254630.06    320.60219    4312.3467    16117.588 
  423900   -254697.14    65.800137   -254631.34    321.57423    4324.7918    16117.588 
  424000   -254697.05    66.507501   -254630.54    325.03122    4371.4914    16117.588 
  424100   -254696.59    67.974477   -254628.61    332.20053    4466.7595    16117.588 
  424200   -254696.22    66.910275   -254629.31    326.99963    4397.2175    16117.588 
  424300   -254698.15     64.79705   -254633.35    316.67201     4257.155    16117.588 
  424400   -254697.05    64.287624   -254632.76    314.18238    4223.7321    16117.588 
  424500    -254695.4    65.511625   -254629.89    320.16424    4304.8948    16117.588 
  424600   -254694.63    65.659762   -254628.97     320.8882    4342.0272    16117.588 
  424700   -254693.08    66.343401   -254626.74    324.22924    4384.1131    16117.588 
  424800   -254692.58    66.501226   -254626.08    325.00055    4370.9761    16117.588 
  424900   -254693.86    66.483775   -254627.37    324.91527    4369.8539    16117.588 
  425000    -254696.6    65.172685   -254631.43    318.50779      4282.61    16117.588 
  425100   -254697.66     66.30577   -254631.35    324.04533    4357.6882    16117.588 
  425200   -254695.91    66.628064   -254629.29    325.62043      4377.99    16117.588 
  425300   -254694.81    67.048424   -254627.76    327.67478    4404.5919    16117.588 
  425400    -254695.4    67.890036   -254627.51    331.78786    4461.3243    16117.588 
  425500   -254697.31    65.582673   -254631.73    320.51146    4308.7794    16117.588 
  425600    -254695.5    63.646677   -254631.85    311.04998    4180.4411    16117.588 
  425700   -254697.05    67.560357   -254629.49    330.17667    4439.5468    16117.588 
  425800   -254696.97     68.09886   -254628.87    332.80841    4475.8479    16117.588 
  425900   -254695.28    65.164084   -254630.11    318.46575    4281.9891    16117.588 
  426000    -254697.7    65.982074   -254631.71    322.46338    4401.2745    16117.588 
  426100   -254698.19    63.614549   -254634.58    310.89297    4178.2892    16117.588 
  426200   -254697.63    63.537278    -254634.1    310.51534     4229.521    16117.588 
  426300   -254695.81    65.600462   -254630.21    320.59839    4345.0497    16117.588 
  426400   -254695.02    65.621219    -254629.4    320.69984    4311.7299    16117.588 
  426500    -254696.7    67.163211   -254629.54    328.23576    4414.2697    16117.588 
  426600   -254694.68    65.109053   -254629.57    318.19681    4277.6127    16117.588 
  426700   -254695.28    66.762041   -254628.52    326.27519    4412.0852    16117.588 
  426800   -254695.28    68.843105   -254626.44    336.44563    4643.5622    16117.588 
  426900   -254693.46     68.55238   -254624.91    335.02482    4506.7321    16117.588 
  427000   -254693.71    66.582743   -254627.13    325.39894    4376.7826    16117.588 
  427100   -254696.32    66.389166   -254629.93     324.4529    4411.0079    16117.588 
  427200   -254696.21    65.752623   -254630.46    321.34203    4321.5125    16117.588 
  427300   -254697.37    67.378035   -254629.99    329.28564     4457.325    16117.588 
  427400   -254694.88    65.174026   -254629.71    318.51434    4283.3931    16117.588 
  427500   -254696.31    67.342743   -254628.97    329.11316    4426.5018    16117.588 
  427600   -254697.23     66.05942   -254631.17    322.84139    4340.7159    16117.588 
  427700   -254697.86    64.553925   -254633.31    315.48383    4268.9837    16117.588 
  427800    -254701.3     68.78522   -254632.51    336.16274    4591.8493    16117.588 
  427900   -254697.99     66.90345   -254631.08    326.96628    4426.9311    16117.588 
  428000   -254697.69    70.031691   -254627.66    342.25441    4604.7667    16117.588 
  428100    -254697.1    69.406535   -254627.69    339.19919    4587.6407    16117.588 
  428200    -254699.2    66.573398   -254632.63    325.35327    4377.6111    16117.588 
  428300   -254698.39    66.139983   -254632.25    323.23511    4348.1985    16117.588 
  428400   -254697.87    66.885476   -254630.99    326.87843      4398.33    16117.588 
  428500   -254696.53    67.403629   -254629.13    329.41072    4431.3236    16117.588 
  428600   -254697.15    67.402472   -254629.75    329.40506    4431.0436    16117.588 
  428700   -254697.35    64.115017   -254633.23    313.33882    4213.7985    16117.588 
  428800   -254696.15    63.675619   -254632.48    311.19142    4184.8341    16117.588 
  428900   -254697.36    66.981459   -254630.38    327.34751    4403.7962    16117.588 
  429000   -254697.81    67.252928   -254630.56    328.67422    4421.8365    16117.588 
  429100   -254697.48    66.550678   -254630.93    325.24223    4376.1009    16117.588 
  429200    -254699.1    65.501336    -254633.6    320.11395    4335.3903    16117.588 
  429300   -254700.59    64.423745   -254636.16    314.84762    4313.0659    16117.588 
  429400   -254700.12    65.587654   -254634.54     320.5358    4313.9024    16117.588 
  429500    -254697.6    64.206435   -254633.39     313.7856     4252.464    16117.588 
  429600   -254696.96    65.820284   -254631.13    321.67269    4329.1426    16117.588 
  429700    -254694.8    65.014767   -254629.79    317.73603    4275.9006    16117.588 
  429800    -254695.7    67.184492   -254628.52    328.33976    4458.8365    16117.588 
  429900   -254696.23    67.550785   -254628.68    330.12989     4442.915    16117.588 
  430000   -254696.12    65.000023   -254631.12    317.66397    4273.4935    16117.588 
Loop time of 71110.9 on 1 procs for 430000 steps with 1584 atoms

Performance: 0.261 ns/day, 91.875 hours/ns, 6.047 timesteps/s
97.8% CPU use with 1 MPI tasks x 1 OpenMP threads

MPI task timing breakdown:
Section |  min time  |  avg time  |  max time  |%varavg| %total
---------------------------------------------------------------
Pair    | 67053      | 67053      | 67053      |   0.0 | 94.29
Kspace  | 219.89     | 219.89     | 219.89     |   0.0 |  0.31
Neigh   | 1009.6     | 1009.6     | 1009.6     |   0.0 |  1.42
Comm    | 11.205     | 11.205     | 11.205     |   0.0 |  0.02
Output  | 2804.3     | 2804.3     | 2804.3     |   0.0 |  3.94
Modify  | 11.339     | 11.339     | 11.339     |   0.0 |  0.02
Other   |            | 1.877      |            |       |  0.00

Nlocal:        1584.00 ave        1584 max        1584 min
Histogram: 1 0 0 0 0 0 0 0 0 0
Nghost:        10224.0 ave       10224 max       10224 min
Histogram: 1 0 0 0 0 0 0 0 0 0
Neighs:        817687.0 ave      817687 max      817687 min
Histogram: 1 0 0 0 0 0 0 0 0 0
FullNghs:  1.12542e+06 ave 1.12542e+06 max 1.12542e+06 min
Histogram: 1 0 0 0 0 0 0 0 0 0

Total # of neighbors = 1125422
Ave neighs/atom = 710.49369
Neighbor list builds = 43000
Dangerous builds not checked
Total wall time: 19:45:16
