LAMMPS (29 Sep 2021 - Update 2)
OMP_NUM_THREADS environment is not set. Defaulting to 1 thread. (src/comm.cpp:98)
  using 1 OpenMP thread(s) per MPI task
Reading data file ...
  orthogonal box = (0.0000000 0.0000000 0.0000000) to (25.260000 25.260000 25.260000)
  1 by 1 by 1 MPI processor grid
WARNING: Atom style in data file differs from currently defined atom style (src/read_data.cpp:516)
  reading atoms ...
  1584 atoms
  read_data CPU = 0.002 seconds
NequIP Coeff: type 1 is element O
NequIP Coeff: type 2 is element H
NequIP Coeff: type 3 is element Li
NequIP Coeff: type 4 is element Cl
Scanning dump file ...
Reading snapshot from dump file ...
  orthogonal box = (0.0000000 0.0000000 0.0000000) to (25.260000 25.260000 25.260000)
  1584 atoms before read
  1584 atoms in snapshot
  0 atoms purged
  1584 atoms replaced
  0 atoms trimmed
  0 atoms added
  1584 atoms after read
PPPM initialization ...
  using 12-bit tables for long-range coulomb (src/kspace.cpp:340)
  G vector (1/distance) = 0.22568151
  grid = 9 9 9
  stencil order = 5
  estimated absolute RMS force accuracy = 8.1621662e-06
  estimated relative force accuracy = 5.6683107e-07
  using double precision FFTW3
  3d grid and FFT values/proc = 2744 729
Neighbor list info ...
  update every 10 steps, delay 0 steps, check no
  max neighbors/atom: 2000, page size: 100000
  master list distance cutoff = 12
  ghost atom cutoff = 12
  binsize = 6, bins = 5 5 5
  3 neighbor lists, perpetual/occasional/extra = 3 0 0
  (1) pair nequip, perpetual
      attributes: full, newton off
      pair build: full/bin/atomonly
      stencil: full/bin/3d
      bin: standard
  (2) pair coul/long, perpetual, half/full from (1)
      attributes: half, newton off
      pair build: halffull/newtoff
      stencil: none
      bin: none
  (3) pair gauss/cut, perpetual, copy from (2)
      attributes: half, newton off
      pair build: copy
      stencil: none
      bin: none
Setting up Verlet run ...
  Unit style    : metal
  Current step  : 0
  Time step     : 0.0005
Per MPI rank memory allocation (min/avg/max) = 16.42 | 16.42 | 16.42 Mbytes
Step PotEng KinEng TotEng Temp Press Volume 
       0   -254646.91    92.078464   -254554.83          450    6082.5077    16117.588 
     100   -254652.44    94.483969   -254557.96    461.75603    6215.5984    16117.588 
     200   -254656.58    94.502159   -254562.08    461.84493    6218.0734    16117.588 
     300   -254655.45    90.721393   -254564.72    443.36781    5965.6153    16117.588 
     400   -254659.23    94.063076   -254565.16    459.69907    6189.9606    16117.588 
     500   -254655.25    89.175945   -254566.07    435.81499    5865.5163    16117.588 
     600   -254656.71    89.878406   -254566.83    439.24802    5911.7856    16117.588 
     700   -254656.99    90.420713   -254566.57    441.89834    5979.0744    16117.588 
     800   -254657.57    94.522345   -254563.05    461.94358     6258.642    16117.588 
     900   -254657.48     96.16852   -254561.31    469.98866    6328.9667    16117.588 
    1000   -254655.05    89.826315   -254565.23    438.99344    5897.8064    16117.588 
    1100   -254655.82    89.148387   -254566.67    435.68031    5860.9509    16117.588 
    1200   -254656.63    91.372751   -254565.26    446.55108    6061.4921    16117.588 
    1300   -254657.08    92.667181   -254564.41    452.87714    6097.9835    16117.588 
    1400   -254654.57    90.797086   -254563.77    443.73773    5975.0662    16117.588 
    1500   -254655.63    94.827541    -254560.8    463.43511    6312.5278    16117.588 
    1600   -254653.82    94.290283   -254559.53    460.80946    6235.9807    16117.588 
    1700   -254657.33    94.076411   -254563.25    459.76424    6192.3866    16117.588 
    1800   -254656.77    90.335155   -254566.43    441.48021    5943.8526    16117.588 
    1900   -254656.26    89.586261   -254566.67    437.82026     5991.738    16117.588 
    2000   -254658.96    93.544546   -254565.41    457.16494    6153.3995    16117.588 
    2100   -254657.53    94.005275   -254563.53    459.41659    6186.1467    16117.588 
    2200   -254653.78    94.814022   -254558.96    463.36904    6239.7066    16117.588 
    2300   -254657.17    96.425976   -254560.75    471.24688    6344.8094    16117.588 
    2400   -254658.58    94.007893   -254564.57    459.42938    6218.8871    16117.588 
    2500   -254657.45    91.600819   -254565.85    447.66568    6027.0417    16117.588 
    2600   -254658.12    92.297478   -254565.83    451.07035     6072.111    16117.588 
    2700   -254659.42    92.256157   -254567.16    450.86841    6114.4884    16117.588 
    2800   -254659.86    90.877655   -254568.98    444.13148    5978.4971    16117.588 
    2900   -254657.32     88.88495   -254568.43    434.39286     5879.659    16117.588 
    3000      -254659    94.245451   -254564.76    460.59036    6234.0956    16117.588 
    3100   -254656.49    91.709921   -254564.78    448.19888    6104.7412    16117.588 
    3200   -254656.95    89.639867   -254567.31    438.08224    5898.2854    16117.588 
    3300    -254661.9    90.633136   -254571.27    442.93648    6004.0001    16117.588 
    3400   -254659.19    88.815637   -254570.38    434.05412    5841.6803    16117.588 
    3500   -254658.79     93.36932   -254565.42    456.30859    6175.1369    16117.588 
    3600   -254656.69     92.93534   -254563.76    454.18767    6213.1132    16117.588 
    3700   -254656.87    94.468871    -254562.4    461.68224      6289.77    16117.588 
    3800   -254653.34    91.778184   -254561.57    448.53249    6083.5762    16117.588 
    3900   -254655.89    90.688748    -254565.2    443.20827    6017.1617    16117.588 
    4000   -254658.66    90.720809   -254567.94    443.36495    5969.1169    16117.588 
    4100   -254657.17    89.590096   -254567.58    437.83901      5893.91    16117.588 
    4200   -254658.04    92.453729   -254565.58    451.83397    6132.5058    16117.588 
    4300   -254652.85     91.83804   -254561.01    448.82502    6040.9194    16117.588 
    4400   -254655.58    97.158104   -254558.42    474.82489    6430.0087    16117.588 
    4500    -254655.5    93.818722   -254561.69    458.50488    6173.5339    16117.588 
    4600   -254657.23    92.868367   -254564.36    453.86036    6124.5853    16117.588 
    4700   -254658.04    91.606501   -254566.43    447.69345    6074.0845    16117.588 
    4800   -254658.48    91.801038   -254566.68    448.64418    6037.8151    16117.588 
    4900   -254660.15    91.989335   -254568.16    449.56441    6050.7977    16117.588 
    5000    -254661.1    91.955407   -254569.15     449.3986    6049.3445    16117.588 
    5100   -254659.32    92.488314   -254566.84    452.00299    6080.5332    16117.588 
    5200    -254656.9    91.806529   -254565.09    448.67102    6037.0146    16117.588 
    5300   -254658.86    96.539436   -254562.32    471.80138    6411.2138    16117.588 
    5400   -254656.96    94.017073   -254562.94    459.47424    6307.1689    16117.588 
    5500   -254658.29    90.281337   -254568.01     441.2172    6009.1514    16117.588 
    5600   -254660.44    91.139966    -254569.3    445.41343    6073.9254    16117.588 
    5700   -254657.93    90.390553   -254567.54    441.75095    5944.6142    16117.588 
    5800   -254656.71    93.080685   -254563.63    454.89799    6160.6699    16117.588 
    5900    -254657.4    94.494294    -254562.9    461.80649    6331.3444    16117.588 
    6000   -254656.23    91.254165   -254564.98    445.97154    6002.0982    16117.588 
    6100   -254658.83    92.866233   -254565.97    453.84993    6109.8089    16117.588 
    6200   -254657.69    89.961566   -254567.73    439.65443    6024.1025    16117.588 
    6300   -254660.27    88.462011   -254571.81     432.3259    5845.9333    16117.588 
    6400   -254663.92    90.912008   -254573.01    444.29937    5980.3183    16117.588 
    6500   -254660.96    92.371995   -254568.59    451.43452    6075.8686    16117.588 
    6600   -254659.14    94.228726   -254564.92    460.50862    6199.9178    16117.588 
    6700   -254660.91    95.518474   -254565.39     466.8118    6284.8341    16117.588 
    6800   -254661.17    91.515738   -254569.65    447.24988    6018.8595    16117.588 
    6900   -254661.02    91.349536   -254569.67    446.43763    6059.5482    16117.588 
    7000   -254659.57    91.342145   -254568.22     446.4015    6106.8286    16117.588 
    7100   -254656.12    91.202266   -254564.91     445.7179    5998.7734    16117.588 
    7200   -254653.35    89.606305   -254563.75    437.91822    5955.1638    16117.588 
    7300   -254655.31    91.037138   -254564.27     444.9109    5990.3462    16117.588 
    7400   -254655.56    91.893286   -254563.67    449.09501    6153.8567    16117.588 
    7500   -254657.34    90.366014   -254566.97    441.63102    6001.7854    16117.588 
    7600   -254656.44    86.368843   -254570.07    422.09631    5682.7801    16117.588 
    7700   -254659.24    92.791328   -254566.45    453.48386    6106.7817    16117.588 
    7800   -254656.07    91.534021   -254564.54    447.33923    6019.1715    16117.588 
    7900   -254656.09    92.457965   -254563.63    451.85467    6085.9747    16117.588 
    8000   -254656.03    91.885616   -254564.15    449.05752     6048.459    16117.588 
    8100   -254658.77    92.614435   -254566.16    452.61936    6097.3903    16117.588 
    8200   -254661.07    91.147152   -254569.93    445.44855     6074.163    16117.588 
    8300   -254660.29    91.666436   -254568.62    447.98636    6070.7438    16117.588 
    8400   -254660.55    93.671685   -254566.88    457.78629    6193.7249    16117.588 
    8500      -254655    93.820962   -254561.18    458.51583    6175.0381    16117.588 
    8600   -254655.08    94.526883   -254560.55    461.96575    6267.2991    16117.588 
    8700   -254658.27     94.01001   -254564.26    459.43973     6278.907    16117.588 
    8800   -254661.44    94.615928   -254566.82    462.40093    6229.1087    16117.588 
    8900    -254659.8    90.451873   -254569.35    442.05062     5976.319    16117.588 
    9000   -254660.68     90.54459   -254570.14    442.50375    5955.8366    16117.588 
    9100   -254659.79    91.992909    -254567.8    449.58188    6051.6822    16117.588 
    9200   -254658.08    94.484905   -254563.59    461.76061    6261.6134    16117.588 
    9300   -254657.52    93.643488   -254563.87    457.64848    6163.5046    16117.588 
    9400   -254656.22    86.876612   -254569.35    424.57784     5738.515    16117.588 
    9500   -254659.22    89.717546    -254569.5    438.46187    6069.3245    16117.588 
    9600   -254661.31    94.760114   -254566.55    463.10559    6237.1194    16117.588 
    9700   -254659.49    93.575246   -254565.91    457.31498    6157.1868    16117.588 
    9800   -254657.77    92.260774   -254565.51    450.89097    6074.5705    16117.588 
    9900   -254657.93    93.188176   -254564.74    455.42331    6134.7482    16117.588 
   10000   -254655.52    92.732587   -254562.79    453.19678    6205.9415    16117.588 
   10100   -254655.66    92.632169   -254563.03    452.70603     6118.364    16117.588 
   10200   -254656.92      90.0649   -254566.86    440.15944    5926.4131    16117.588 
   10300   -254661.09    91.755049   -254569.33    448.41943    6041.2898    16117.588 
   10400   -254657.65    89.620082   -254568.03    437.98555    5933.9215    16117.588 
   10500   -254659.32    92.890571   -254566.43    453.96888    6139.7238    16117.588 
   10600   -254660.25    95.537889   -254564.71    466.90668    6320.1206    16117.588 
   10700      -254656    95.178158   -254560.82    465.14862    6265.7072    16117.588 
   10800   -254655.05    92.063014   -254562.99    449.92449    6060.5663    16117.588 
   10900   -254659.13    92.144722   -254566.98    450.32381    6064.8634    16117.588 
   11000   -254658.71    90.525027   -254568.18    442.40814    5957.4542    16117.588 
   11100   -254657.71    90.407212   -254567.31    441.83236    6003.8006    16117.588 
   11200   -254658.44    94.230965   -254564.21    460.51956    6397.9926    16117.588 
   11300    -254655.8    91.954831   -254563.84    449.39579    6053.6809    16117.588 
   11400    -254656.3    91.857583   -254564.44    448.92052    6045.8403    16117.588 
   11500   -254658.12    92.544383   -254565.57    452.27701    6093.1167    16117.588 
   11600   -254655.91    90.632621   -254565.28    442.93397    5960.4056    16117.588 
   11700   -254656.48    92.330137   -254564.15    451.22996    6105.1766    16117.588 
   11800    -254655.2    93.471637   -254561.73    456.80863    6209.4326    16117.588 
   11900   -254653.91    92.456028   -254561.45     451.8452     6087.481    16117.588 
   12000   -254655.54    91.252159   -254564.29    445.96173    6079.7114    16117.588 
   12100   -254657.53    89.801916   -254567.73     438.8742    5910.6594    16117.588 
   12200    -254659.8    91.449023   -254568.35    446.92384    6018.3131    16117.588 
   12300   -254661.66    93.331021   -254568.33    456.12142    6140.6047    16117.588 
   12400    -254660.7    89.244794   -254571.46    436.15147    5871.9641    16117.588 
   12500   -254663.79    92.036013   -254571.76    449.79253    6057.0918    16117.588 
   12600   -254659.58    91.818917   -254567.76    448.73156    6042.2108    16117.588 
   12700   -254658.65    93.039933   -254565.61    454.69883    6151.2942    16117.588 
   12800   -254658.49    92.749032   -254565.74    453.27716    6146.0156    16117.588 
   12900   -254658.02     91.53998   -254566.48    447.36835    6023.7831    16117.588 
   13000   -254658.29    92.469877   -254565.82    451.91289    6085.7146    16117.588 
   13100   -254656.41    91.943583   -254564.47    449.34082    6071.4786    16117.588 
   13200   -254658.82     93.52573    -254565.3    457.07299    6191.3458    16117.588 
   13300   -254655.63    88.679258   -254566.95    433.38762    5834.5959    16117.588 
   13400   -254659.54    90.855978   -254568.69    444.02554    6007.1568    16117.588 
   13500   -254659.86    91.269099   -254568.59    446.04452    6004.0198    16117.588 
   13600   -254657.22    92.814547   -254564.41    453.59734    6102.7894    16117.588 
   13700   -254657.76     94.40944   -254563.35     461.3918    6214.6295    16117.588 
   13800      -254660    95.429884   -254564.57    466.37884    6281.7092    16117.588 
   13900    -254659.9    90.716013   -254569.18    443.34152    5964.3596    16117.588 
   14000   -254662.56    91.732094   -254570.83    448.30724    6037.4607    16117.588 
   14100   -254661.18    91.246032   -254569.93    445.93179    6003.6129    16117.588 
   14200   -254661.19    93.478185   -254567.71    456.84063    6242.5134    16117.588 
   14300   -254661.13    93.356784   -254567.77    456.24732    6144.2611    16117.588 
   14400   -254659.68    90.169596   -254569.51     440.6711    5933.4881    16117.588 
   14500   -254665.22    90.762183   -254574.46    443.56716     5972.798    16117.588 
   14600   -254660.98    87.276886    -254573.7    426.53403    5740.4676    16117.588 
   14700   -254660.95    90.016607   -254570.93    439.92342    5922.4809    16117.588 
   14800   -254657.33    89.973332   -254567.35    439.71193    5957.0111    16117.588 
   14900   -254659.24    93.726704   -254565.51    458.05517    6228.1505    16117.588 
   15000   -254661.04     93.80784   -254567.24    458.45169    6172.9895    16117.588 
   15100    -254659.9    89.722874   -254570.18    438.48791    5933.1978    16117.588 
   15200   -254660.88    90.239354   -254570.65    441.01202    5937.4666    16117.588 
   15300   -254659.02    93.803038   -254565.21    458.42823    6172.9275    16117.588 
   15400   -254657.39    93.598648   -254563.79    457.42934    6220.2144    16117.588 
   15500   -254657.95    92.939828   -254565.01     454.2096    6114.1108    16117.588 
   15600   -254658.84    90.880239   -254567.96    444.14411    6019.7794    16117.588 
   15700   -254660.55    90.905423   -254569.64    444.26719    6036.6803    16117.588 
   15800   -254659.98    90.627898   -254569.36    442.91088    5963.0961    16117.588 
   15900    -254656.9    92.206594   -254564.69    450.62619    6066.6059    16117.588 
   16000   -254656.36    93.311948   -254563.04     456.0282    6231.3288    16117.588 
   16100   -254654.11    90.286559   -254563.82    441.24271    5939.1154    16117.588 
   16200   -254654.12    89.743964   -254564.38    438.59098    5904.1609    16117.588 
   16300   -254658.27    93.380633   -254564.89    456.36388    6194.5934    16117.588 
   16400   -254658.06    91.145915   -254566.92    445.44251    6141.0819    16117.588 
   16500   -254657.98    90.520481   -254567.45    442.38592    5997.6904    16117.588 
   16600   -254657.04    93.179286   -254563.86    455.37986    6164.5679    16117.588 
   16700   -254657.54    95.268233   -254562.28    465.58883    6304.0238    16117.588 
   16800   -254657.88    92.472729    -254565.4    451.92682    6085.0601    16117.588 
   16900   -254657.73    91.851305   -254565.88    448.88984    6168.5369    16117.588 
   17000   -254658.76    93.577378   -254565.18     457.3254    6189.4415    16117.588 
   17100   -254655.87    90.284306   -254565.59     441.2317    5942.0834    16117.588 
   17200    -254657.6    92.954218   -254564.65    454.27993    6203.2511    16117.588 
   17300   -254659.35    93.583201   -254565.76    457.35385     6160.211    16117.588 
   17400   -254659.63    91.390118   -254568.24    446.63596    6015.3133    16117.588 
   17500   -254658.04    91.088737   -254566.95    445.16307    5993.3533    16117.588 
   17600   -254656.88    94.171857   -254562.71    460.23069    6199.1904    16117.588 
   17700   -254656.92    93.963276   -254562.96    459.21133    6229.8623    16117.588 
   17800   -254659.92    94.630836   -254565.29    462.47379    6258.8665    16117.588 
   17900    -254663.3    95.644005   -254567.65    467.42528    6346.5454    16117.588 
   18000   -254658.27    90.034586   -254568.23    440.01129    5923.3739    16117.588 
   18100   -254658.47    91.950045   -254566.52     449.3724    6090.3257    16117.588 
   18200   -254657.06    92.250208   -254564.81    450.83933    6069.9848    16117.588 
   18300   -254659.35    94.506366   -254564.84    461.86549    6315.6165    16117.588 
   18400   -254658.36    89.316038   -254569.04    436.49965    5956.7904    16117.588 
   18500   -254658.74    87.454668   -254571.29    427.40288    5752.6423    16117.588 
   18600    -254658.1    89.713893   -254568.38    438.44402    5900.7313    16117.588 
   18700   -254660.65    93.782386   -254566.87     458.3273    6321.6746    16117.588 
   18800   -254657.32    92.737719   -254564.59    453.22187    6100.4693    16117.588 
   18900   -254655.52    92.521024   -254562.99    452.16285    6153.2817    16117.588 
   19000   -254657.56    93.265005    -254564.3    455.79878    6166.3301    16117.588 
   19100    -254660.4    90.763565   -254569.64    443.57391    5996.2294    16117.588 
   19200   -254661.28    90.694661   -254570.58    443.23716    6000.0547    16117.588 
   19300    -254660.7    92.601987    -254568.1    452.55853     6094.356    16117.588 
   19400   -254658.61    92.896732   -254565.71    453.99898    6114.0842    16117.588 
   19500   -254657.18    91.501309   -254565.68    447.17936    6116.3413    16117.588 
   19600   -254658.93    91.908478   -254567.02    449.16925    6049.3552    16117.588 
   19700   -254661.39    90.369569   -254571.02     441.6484    6007.2599    16117.588 
   19800   -254661.75    89.827151   -254571.92    438.99752    5910.8994    16117.588 
   19900   -254661.79    92.876717   -254568.91    453.90117    6113.4926    16117.588 
   20000   -254658.64    92.948819   -254565.69    454.25354    6115.1519    16117.588 
   20100   -254657.72    92.332059   -254565.39    451.23935    6076.8748    16117.588 
   20200   -254657.78    91.246474   -254566.53    445.93395    6002.4174    16117.588 
   20300   -254660.66     93.38429   -254567.28    456.38175     6213.539    16117.588 
   20400   -254658.49    91.091771    -254567.4     445.1779    6040.0667    16117.588 
   20500   -254660.33    93.465577   -254566.86    456.77901    6153.1068    16117.588 
   20600   -254658.72    92.638112   -254566.09    452.73507    6097.7525    16117.588 
   20700   -254658.64    93.434485    -254565.2    456.62706    6189.1377    16117.588 
   20800   -254657.85    93.919766   -254563.93    458.99869    6182.7987    16117.588 
   20900   -254654.67    92.267127   -254562.41    450.92202    6073.6242    16117.588 
   21000   -254652.97    91.903095   -254561.07    449.14295    6047.0366    16117.588 
   21100   -254656.29     94.74089   -254561.55    463.01164     6272.523    16117.588 
   21200    -254653.9    88.672993   -254565.23      433.357    5832.5161    16117.588 
   21300    -254657.5    90.743848   -254566.76    443.47755    5994.0969    16117.588 
   21400   -254659.35    91.094997   -254568.25    445.19366    6089.5235    16117.588 
   21500   -254659.64    92.724602   -254566.92    453.15777    6204.8684    16117.588 
   21600   -254659.62    95.864071   -254563.75    468.50077    6308.5143    16117.588 
   21700   -254660.89    95.950652   -254564.94    468.92391    6347.0555    16117.588 
   21800   -254659.02    90.134848   -254568.88    440.50128    5930.7741    16117.588 
   21900    -254659.3    91.190878   -254568.11    445.66224    6000.4773    16117.588 
   22000   -254659.59    93.400458   -254566.19    456.46076    6146.9061    16117.588 
   22100   -254658.37    93.406259   -254564.97    456.48911    6239.8307    16117.588 
   22200   -254660.67    90.750216   -254569.92    443.50867    5971.1756    16117.588 
   22300   -254661.52    88.897797   -254572.63    434.45564    5847.8317    16117.588 
   22400   -254658.71    88.553288   -254570.15    432.77198    5825.4627    16117.588 
   22500   -254658.61    92.595695   -254566.01    452.52778    6128.1014    16117.588 
   22600   -254658.31     93.27937   -254565.03    455.86899     6138.643    16117.588 
   22700   -254657.78     91.96267   -254565.82     449.4341    6113.0911    16117.588 
   22800   -254658.24    89.374039   -254568.86    436.78311    5880.6333    16117.588 
   22900   -254660.24    89.568365   -254570.67     437.7328    5923.4099    16117.588 
   23000   -254658.02    90.498283   -254567.53    442.27744    5952.8142    16117.588 
   23100   -254656.26    92.855893   -254563.41     453.7994    6110.9341    16117.588 
   23200    -254659.7    95.027452   -254564.67     464.4121    6280.1069    16117.588 
   23300   -254658.21    90.625119   -254567.58     442.8973    6015.5435    16117.588 
   23400   -254659.29    91.586897    -254567.7    447.59765    6111.9683    16117.588 
   23500   -254657.55    91.606164   -254565.94    447.69181    6093.2151    16117.588 
   23600   -254655.81    94.585398   -254561.22    462.25173    6357.9987    16117.588 
   23700   -254654.67    95.720013   -254558.95    467.79675    6338.6587    16117.588 
   23800   -254657.85     95.98649   -254561.86    469.09905    6383.1888    16117.588 
   23900   -254655.34    89.841897   -254565.49    439.06959    5936.9862    16117.588 
   24000   -254657.87    91.770853    -254566.1    448.49666    6039.5617    16117.588 
   24100   -254656.71    91.115111   -254565.59    445.29196    5997.3808    16117.588 
   24200   -254656.53    92.359462   -254564.17    451.37327    6151.9273    16117.588 
   24300   -254654.97    93.339862   -254561.63    456.16462    6139.1954    16117.588 
   24400   -254656.78    96.453753   -254560.33    471.38263    6430.4055    16117.588 
   24500      -254655    90.990874   -254564.01     444.6848     6029.303    16117.588 
   24600   -254657.13    90.535957    -254566.6    442.46156    5983.7879    16117.588 
   24700   -254660.52    93.455973   -254567.06    456.73207    6151.9266    16117.588 
   24800   -254659.92    93.010416   -254566.91    454.55458    6123.0459    16117.588 
   24900   -254660.15    93.691558   -254566.46    457.88341    6166.0112    16117.588 
   25000   -254658.65     94.14996    -254564.5    460.12368    6198.0625    16117.588 
   25100   -254655.29    91.801278   -254563.49    448.64535    6065.8717    16117.588 
   25200   -254658.54    92.762339   -254565.77    453.34219    6104.0146    16117.588 
   25300   -254662.16     93.29134   -254568.87    455.92749    6143.1502    16117.588 
   25400   -254659.68    89.349076   -254570.33    436.66111    5907.3745    16117.588 
   25500   -254656.75    92.039363   -254564.71    449.80891     6058.451    16117.588 
   25600   -254655.23    93.079238   -254562.15    454.89092    6126.4721    16117.588 
   25700   -254654.26    91.782256   -254562.48    448.55239     6066.479    16117.588 
   25800   -254656.43    91.520446   -254564.91    447.27289    6024.3452    16117.588 
   25900   -254658.86    89.859974      -254569    439.15793    6002.4078    16117.588 
   26000   -254660.65    90.882356   -254569.77    444.15446    5983.2889    16117.588 
   26100   -254658.99    91.473117   -254567.52    447.04158    6068.8096    16117.588 
   26200   -254656.97    92.334508   -254564.64    451.25132    6079.2391    16117.588 
   26300   -254659.93    94.820501   -254565.11    463.40071    6245.5288    16117.588 
   26400   -254656.35    89.465328   -254566.88    437.22925    5890.5777    16117.588 
   26500   -254657.24    90.155725   -254567.09    440.60331    5960.1991    16117.588 
   26600   -254657.07    95.185689   -254561.89    465.18543    6354.4077    16117.588 
   26700   -254655.33    94.408151   -254560.92    461.38549    6218.8256    16117.588 
   26800   -254654.37    91.362271   -254563.01    446.49987    6049.4463    16117.588 
   26900   -254655.54    91.342556    -254564.2    446.40352    6014.7558    16117.588 
   27000   -254656.87    92.027563   -254564.84    449.75124    6110.8586    16117.588 
   27100   -254660.05    91.683333   -254568.37    448.06894    6036.5899    16117.588 
   27200   -254661.04    89.557145   -254571.49    437.67797    5948.3096    16117.588 
   27300   -254657.69    88.934779   -254568.75    434.63638    5853.8231    16117.588 
   27400   -254657.44    92.360135   -254565.08    451.37656    6080.2813    16117.588 
   27500   -254660.11    95.014735   -254565.09    464.34995    6292.3945    16117.588 
   27600   -254657.95    90.614338   -254567.33    442.84461    5964.9206    16117.588 
   27700   -254659.85    90.309293   -254569.54    441.35382    5942.3019    16117.588 
   27800   -254658.35    92.111135   -254566.24    450.15967    6116.8325    16117.588 
   27900   -254657.18    94.524402   -254562.65    461.95363    6246.8141    16117.588 
   28000   -254658.95    95.450868    -254563.5     466.4814    6355.9774    16117.588 
   28100   -254660.16    93.687336   -254566.47    457.86277    6309.1188    16117.588 
   28200   -254658.14    90.348192   -254567.79    441.54392     5994.348    16117.588 
   28300   -254660.73    94.550668   -254566.18      462.082    6446.7008    16117.588 
   28400    -254658.3    94.080315   -254564.22    459.78331    6216.9112    16117.588 
   28500   -254657.62     89.86713   -254567.75    439.19291     5912.075    16117.588 
   28600   -254656.99    86.361826   -254570.63    422.06201    5703.4864    16117.588 
   28700   -254660.21     92.86033   -254567.35    453.82108    6113.6385    16117.588 
   28800   -254658.78    93.432258   -254565.35    456.61617      6151.13    16117.588 
   28900    -254658.5    94.436438   -254564.06    461.52374    6307.8946    16117.588 
   29000   -254657.65     90.87648   -254566.77    444.12574    5980.7496    16117.588 
   29100   -254661.89    90.353766   -254571.54    441.57116     5947.789    16117.588 
   29200   -254661.81    88.171699   -254573.64     430.9071    5838.4006    16117.588 
   29300   -254658.91    90.457988   -254568.46    442.08051    5984.8895    16117.588 
   29400   -254658.58    93.261256   -254565.32    455.78046    6139.0195    16117.588 
   29500   -254656.14    90.874634   -254565.26    444.11672    5980.6473    16117.588 
   29600   -254658.99    92.022718   -254566.96    449.72756    6058.4855    16117.588 
   29700   -254660.96    90.939465   -254570.02    444.43355    5985.0545    16117.588 
   29800   -254662.89    91.469435   -254571.42    447.02359    6053.4334    16117.588 
   29900   -254663.78    91.274848   -254572.51    446.07262    6032.3521    16117.588 
   30000   -254660.09    90.833331   -254569.26    443.91486    6016.3474    16117.588 
   30100   -254658.16    92.381088   -254565.78    451.47896    6081.8012    16117.588 
   30200   -254657.07    92.420999   -254564.65    451.67401     6084.528    16117.588 
   30300   -254655.12    91.218489    -254563.9    445.79718    6085.3341    16117.588 
   30400   -254655.77    93.589458   -254562.18    457.38443    6303.8439    16117.588 
   30500   -254653.61    93.406062    -254560.2    456.48815    6172.4275    16117.588 
   30600   -254654.42    93.620701    -254560.8    457.53712    6163.6179    16117.588 
   30700   -254657.16    91.837023   -254565.32    448.82004    6043.1635    16117.588 
   30800   -254656.94    89.887813   -254567.05    439.29399    5943.7181    16117.588 
   30900   -254656.87    92.251165   -254564.62    450.84401    6102.9212    16117.588 
   31000   -254658.04    94.878503   -254563.16    463.68417    6243.4902    16117.588 
   31100   -254656.31    93.006855    -254563.3    454.53717    6121.9282    16117.588 
   31200   -254657.75    91.983782   -254565.77    449.53727    6054.7901    16117.588 
   31300   -254656.44    89.860852   -254566.58    439.16223     5950.954    16117.588 
   31400   -254654.09    89.599286   -254564.49    437.88392    5895.2894    16117.588 
   31500   -254656.72    94.264381   -254562.46    460.68287    6203.3431    16117.588 
   31600   -254658.72    94.646187   -254564.07    462.54881    6228.5352    16117.588 
   31700   -254657.21    88.559557   -254568.65    432.80262    5825.7213    16117.588 
   31800   -254659.65    91.372715   -254568.27     446.5509    6011.7233    16117.588 
   31900   -254659.21    91.976511   -254567.23    449.50174    6048.5232    16117.588 
   32000   -254659.43    92.488684   -254566.94     452.0048    6085.1709    16117.588 
   32100   -254658.67    92.320128   -254566.35    451.18104    6129.6695    16117.588 
   32200   -254657.16    95.164597   -254561.99    465.08235     6286.304    16117.588 
   32300   -254655.59    92.793762    -254562.8    453.49576    6240.4823    16117.588 
   32400   -254657.67    90.723552   -254566.95    443.37836     5961.448    16117.588 
   32500   -254657.83    90.526445   -254567.31    442.41507    6030.5695    16117.588 
   32600   -254654.89    89.647153   -254565.24    438.11785    5893.3439    16117.588 
   32700   -254656.38    93.975118    -254562.4     459.2692    6301.0712    16117.588 
   32800   -254655.78    92.950812   -254562.83    454.26328    6173.5412    16117.588 
   32900   -254658.39    94.372561   -254564.02    461.21157    6240.7414    16117.588 
   33000   -254656.43    91.368313   -254565.06    446.52939    6008.8284    16117.588 
   33100   -254656.48    91.395804   -254565.08    446.66375    6041.6197    16117.588 
   33200   -254657.12    93.212906   -254563.91    455.54417    6165.7396    16117.588 
   33300   -254652.54    94.370801   -254558.17    461.20296     6210.913    16117.588 
   33400   -254653.61    94.970098   -254558.64    464.13181    6250.2143    16117.588 
   33500   -254656.72    94.298364   -254562.42    460.84895    6207.2644    16117.588 
   33600   -254657.61    91.583616   -254566.03    447.58161    6071.2559    16117.588 
   33700   -254660.99    93.005125   -254567.99    454.52872    6120.7411    16117.588 
   33800   -254661.71    92.798286   -254568.91    453.51787    6306.3869    16117.588 
   33900   -254662.43    93.077613   -254569.36    454.88298    6171.0712    16117.588 
   34000    -254660.9    91.919677   -254568.98    449.22398    6051.0264    16117.588 
   34100   -254661.32    95.084204   -254566.23    464.68946    6310.8632    16117.588 
   34200   -254657.47    92.708166   -254564.76    453.07744    6101.5811    16117.588 
   34300   -254654.63    89.993176   -254564.64    439.80891    5923.0983    16117.588 
   34400   -254655.26    88.014136   -254567.25    430.13707    5791.5245    16117.588 
   34500   -254663.42    93.929205   -254569.49    459.04482     6183.778    16117.588 
   34600   -254662.05    90.259024   -254571.79    441.10815      5940.27    16117.588 
   34700      -254665    93.234384   -254571.76    455.64914    6137.1858    16117.588 
   34800   -254659.75    92.465169   -254567.29    451.88988    6088.2004    16117.588 
   34900   -254658.57    94.201122   -254564.37    460.37372    6199.2881    16117.588 
   35000   -254657.38    91.619509   -254565.76    447.75702    6189.3875    16117.588 
   35100   -254657.78     89.26388   -254568.52    436.24474    5933.4573    16117.588 
   35200   -254659.27    91.586043   -254567.69    447.59347    6051.4928    16117.588 
   35300   -254660.23    94.354519   -254565.88    461.12339     6236.306    16117.588 
   35400   -254659.21    93.114146    -254566.1    455.06152    6228.6548    16117.588 
   35500   -254661.01    93.615609   -254567.39    457.51224    6164.1259    16117.588 
   35600    -254657.8     89.78547   -254568.01    438.79383    6008.0718    16117.588 
   35700   -254656.91    92.206459   -254564.71    450.62553    6092.6971    16117.588 
   35800   -254655.18    94.320454   -254560.86    460.95691    6203.8256    16117.588 
   35900   -254657.25    95.370537   -254561.88    466.08881    6280.3709    16117.588 
   36000   -254657.28    92.145206   -254565.14    450.32617    6118.5616    16117.588 
   36100   -254660.04    93.532221   -254566.51    457.10471    6202.4859    16117.588 
   36200   -254657.09    90.066064   -254567.02    440.16512    5972.8226    16117.588 
   36300   -254658.09     92.83676   -254565.26     453.7059    6200.4033    16117.588 
   36400    -254654.6    89.162318   -254565.44     435.7484    5868.0954    16117.588 
   36500   -254656.41     90.83559   -254565.58     443.9259    5979.5434    16117.588 
   36600   -254658.51    93.853519   -254564.66    458.67494     6223.881    16117.588 
   36700   -254658.53    94.182968   -254564.35    460.28499     6196.332    16117.588 
   36800   -254658.72    93.147751   -254565.58    455.22575    6130.6761    16117.588 
   36900   -254657.18    89.145877   -254568.03    435.66805    5866.8562    16117.588 
   37000    -254659.7    91.164739   -254568.54     445.5345    6026.1555    16117.588 
   37100   -254658.15    92.650948    -254565.5    452.79781    6174.2692    16117.588 
   37200   -254656.45    93.829545   -254562.62    458.55777    6178.1004    16117.588 
   37300   -254655.81    94.128226   -254561.68    460.01746    6195.5307    16117.588 
   37400   -254660.25    93.607393   -254566.64    457.47208    6162.4865    16117.588 
   37500   -254660.45    91.846696    -254568.6    448.86732    6044.8318    16117.588 
   37600   -254659.33    92.054573   -254567.28    449.88324    6058.0977    16117.588 
   37700   -254658.55    92.566856   -254565.98    452.38684    6153.5253    16117.588 
   37800   -254657.85    92.914612   -254564.94    454.08637    6144.7678    16117.588 
   37900   -254656.97    91.990937   -254564.98    449.57224    6092.9917    16117.588 
   38000   -254654.66     92.54586   -254562.12    452.28423     6089.909    16117.588 
   38100   -254654.76    94.747623   -254560.01    463.04454    6236.3846    16117.588 
   38200    -254654.5    91.912493   -254562.58    449.18888    6050.5909    16117.588 
   38300   -254656.59    90.462233   -254566.13    442.10126    5952.9276    16117.588 
   38400   -254655.73    90.052874   -254565.68    440.10066    5926.7738    16117.588 
   38500    -254656.3    91.114905   -254565.18    445.29095    6070.7232    16117.588 
   38600    -254654.1    88.467496   -254565.63    432.35271     5821.338    16117.588 
   38700    -254658.1    93.296452    -254564.8    455.95247    6140.1479    16117.588 
   38800   -254654.17    92.716381   -254561.46    453.11759    6169.7731    16117.588 
   38900   -254653.39    94.998359    -254558.4    464.26993    6315.2981    16117.588 
   39000   -254653.44    92.184838   -254561.25    450.51986    6064.8056    16117.588 
   39100   -254657.23    93.391861   -254563.84    456.41875    6145.4526    16117.588 
   39200   -254658.51    93.019729   -254565.49    454.60009    6121.4114    16117.588 
   39300   -254658.46    91.769702   -254566.69    448.49104    6038.7546    16117.588 
   39400   -254659.58    95.195065   -254564.39    465.23125    6264.6559    16117.588 
   39500   -254655.23     94.57702   -254560.65    462.21078    6272.7345    16117.588 
   39600   -254655.48    94.353031   -254561.13    461.11612    6310.9478    16117.588 
   39700   -254656.59    91.307309   -254565.28    446.23126    6005.2064    16117.588 
   39800   -254656.76    90.843388   -254565.91    443.96401    6068.6787    16117.588 
   39900   -254656.33    90.463412   -254565.87    442.10702    6040.0962    16117.588 
   40000   -254658.96    93.143533   -254565.81    455.20514    6185.1876    16117.588 
   40100   -254658.29    89.484564    -254568.8    437.32325     5916.359    16117.588 
   40200   -254661.12    87.831074   -254573.28    429.24243     5836.929    16117.588 
   40300   -254664.29    92.577498   -254571.71    452.43884    6093.6156    16117.588 
   40400    -254660.1    91.537064   -254568.56     447.3541    6153.3751    16117.588 
   40500   -254658.33    92.609771   -254565.72    452.59657    6095.4858    16117.588 
   40600   -254659.41    94.463169   -254564.95    461.65438    6217.5903    16117.588 
   40700   -254658.68    91.943781   -254566.73    449.34178    6052.6961    16117.588 
   40800   -254660.25    91.469791   -254568.78    447.02533    6057.7891    16117.588 
   40900   -254657.89    89.662916   -254568.23    438.19488    6085.2245    16117.588 
   41000   -254656.73    93.480583   -254563.25    456.85234    6152.3354    16117.588 
   41100   -254656.72     93.91822   -254562.81    458.99114    6233.5714    16117.588 
   41200   -254658.79     92.64641   -254566.15    452.77563    6171.9158    16117.588 
   41300   -254658.95    90.451317    -254568.5    442.04791    5954.8087    16117.588 
   41400   -254660.37    92.135501   -254568.24    450.27874    6142.3918    16117.588 
   41500   -254657.47     91.87141   -254565.59     448.9881    6080.7444    16117.588 
   41600   -254653.98    93.269813   -254560.71    455.82228     6140.772    16117.588 
   41700   -254652.75    91.166759   -254561.58    445.54437    5999.8233    16117.588 
   41800   -254656.89    92.233894   -254564.66    450.75961    6106.9114    16117.588 
   41900   -254658.08    91.522342   -254566.55    447.28215    6050.3138    16117.588 
   42000   -254656.47    90.357618   -254566.12    441.58999    5947.7233    16117.588 
   42100   -254657.11    93.615857    -254563.5    457.51345    6164.9294    16117.588 
   42200   -254655.67    92.977512   -254562.69    454.39377    6143.4341    16117.588 
   42300   -254657.19    91.152569   -254566.03    445.47502    5999.8982    16117.588 
   42400   -254659.72     90.87786   -254568.84    444.13248    6199.7682    16117.588 
   42500   -254656.09    88.313759   -254567.78    431.60137    5979.3728    16117.588 
   42600   -254658.04    93.592946   -254564.45    457.40148     6161.971    16117.588 
   42700   -254655.79    93.303679   -254562.49    455.98779    6141.8154    16117.588 
   42800   -254657.96    94.111442   -254563.84    459.93544    6197.4673    16117.588 
   42900    -254660.3    93.683207   -254566.61     457.8426    6218.1549    16117.588 
   43000   -254659.89    91.152931   -254568.74    445.47679    6128.4606    16117.588 
   43100   -254659.97    91.351932   -254568.62    446.44934    6048.5894    16117.588 
   43200   -254657.28    90.990245   -254566.29    444.68173    5992.2909    16117.588 
   43300   -254654.83    93.767555   -254561.06    458.25481    6174.4644    16117.588 
   43400   -254654.67    93.194147   -254561.47    455.45249    6206.3697    16117.588 
   43500   -254653.63    90.849882   -254562.78    443.99575    5983.0676    16117.588 
   43600    -254658.3    93.557581   -254564.74    457.22864    6189.6771    16117.588 
   43700   -254658.96    91.220062   -254567.74    445.80487    6045.4667    16117.588 
   43800   -254659.45    91.168383   -254568.28    445.55231    6003.4306    16117.588 
   43900   -254659.42    93.683124   -254565.74    457.84219    6202.8444    16117.588 
   44000   -254653.18    92.168309   -254561.01    450.43908    6067.0066    16117.588 
   44100   -254656.76    95.234582   -254561.52    465.42438      6321.96    16117.588 
   44200   -254657.69     91.10806   -254566.59     445.2575    6000.6394    16117.588 
   44300   -254660.64    92.098341   -254568.54    450.09714    6064.2417    16117.588 
   44400   -254659.54    91.569625   -254567.97    447.51323    6031.2911    16117.588 
   44500   -254660.72    94.686322   -254566.04    462.74496    6238.1367    16117.588 
   44600   -254658.99    95.054856   -254563.94    464.54603    6264.4036    16117.588 
   44700   -254658.08    91.831431   -254566.25    448.79271    6047.8492    16117.588 
   44800   -254660.75    91.081402   -254569.67    445.12722    6100.5376    16117.588 
   44900   -254659.94    89.699239   -254570.24     438.3724    5907.4501    16117.588 
   45000   -254659.88    92.334752   -254567.55    451.25251    6117.8393    16117.588 
   45100   -254658.68    96.167663   -254562.52    469.98447    6414.3623    16117.588 
   45200   -254659.01     94.99646   -254564.01    464.26064     6296.741    16117.588 
   45300   -254654.99    89.541927   -254565.44    437.60359     5943.761    16117.588 
   45400   -254655.53    91.259942   -254564.27    445.99977    6008.6387    16117.588 
   45500   -254659.79    95.056089   -254564.74    464.55206    6295.9521    16117.588 
   45600    -254659.3    89.166911   -254570.13    435.77084    5872.0834    16117.588 
   45700   -254659.35    88.547921    -254570.8    432.74575     5830.565    16117.588 
   45800   -254659.81    92.001454   -254567.81    449.62364    6156.2398    16117.588 
   45900   -254659.36    92.522483   -254566.84    452.16998    6121.3522    16117.588 
   46000   -254660.14    92.755892   -254567.39    453.31068    6107.2788    16117.588 
   46100    -254663.1    93.251228   -254569.84    455.73145    6143.4629    16117.588 
   46200   -254660.96    89.089906   -254571.87    435.39451     5867.061    16117.588 
   46300   -254661.56    92.506571   -254569.05    452.09222    6094.9093    16117.588 
   46400   -254660.89    95.629666   -254565.26    467.35521    6325.2305    16117.588 
   46500   -254657.98    92.721833   -254565.26    453.14423    6104.4092    16117.588 
   46600   -254658.43    90.901374   -254567.53     444.2474    6091.3021    16117.588 
   46700   -254658.89    89.241509   -254569.64    436.13541    5904.3544    16117.588 
   46800   -254660.02    92.192936   -254567.83    450.55944    6108.6435    16117.588 
   46900   -254658.45    93.667781   -254564.78    457.76721    6170.8841    16117.588 
   47000   -254656.22    91.054335   -254565.16    444.99494    5997.7641    16117.588 
   47100   -254658.54    90.525213   -254568.01    442.40905    5998.7985    16117.588 
   47200   -254660.87    91.711508   -254569.16    448.20664    6136.5253    16117.588 
   47300   -254659.32     90.14782   -254569.18    440.56468    5939.7403    16117.588 
   47400   -254659.34    92.891246   -254566.45    453.97217    6173.9308    16117.588 
   47500   -254659.17    94.139156   -254565.03    460.07088    6289.2173    16117.588 
   47600   -254660.76    92.643101   -254568.12    452.75946    6289.7507    16117.588 
   47700   -254661.96    91.472477   -254570.49    447.03846    6026.5097    16117.588 
   47800   -254658.75    89.304805   -254569.44    436.44475    6014.4821    16117.588 
   47900    -254657.2    92.567319   -254564.64     452.3891     6153.312    16117.588 
   48000    -254658.5    94.262083   -254564.24    460.67164    6207.6623    16117.588 
   48100   -254657.62    91.040681   -254566.58    444.92821      5989.65    16117.588 
   48200   -254660.61    92.420212   -254568.19    451.67017    6103.8158    16117.588 
   48300   -254660.08    90.560747   -254569.52    442.58271    5966.0787    16117.588 
   48400   -254659.76    92.979722   -254566.78    454.40457    6126.6485    16117.588 
   48500   -254654.41    91.571654   -254562.84    447.52315    6100.3944    16117.588 
   48600   -254654.55    91.995241   -254562.55    449.59328    6089.5597    16117.588 
   48700   -254658.86    92.234358   -254566.62    450.76187    6115.8425    16117.588 
   48800   -254659.62    91.072473   -254568.55    445.08358    5997.2062    16117.588 
   48900   -254659.16    90.757939    -254568.4    443.54641    6069.3656    16117.588 
   49000   -254661.46    94.304002   -254567.15     460.8765    6213.0016    16117.588 
   49100   -254658.38    93.231105   -254565.15    455.63311    6142.3613    16117.588 
   49200   -254656.34    94.764381   -254561.58    463.12644    6355.8061    16117.588 
   49300   -254658.25    97.258473   -254560.99    475.31541    6583.7496    16117.588 
   49400   -254657.68    91.340366   -254566.34    446.39281    6067.0757    16117.588 
   49500    -254660.3    92.455768   -254567.84    451.84394    6088.9512    16117.588 
   49600   -254660.99    93.023803   -254567.97       454.62    6125.2823    16117.588 
   49700   -254659.12    90.879518   -254568.24    444.14059    6009.8487    16117.588 
   49800   -254659.06    92.787042   -254566.27    453.46292     6314.164    16117.588 
   49900   -254657.33    94.164138   -254563.17    460.19297    6232.5103    16117.588 
   50000   -254654.65     91.51149   -254563.14    447.22912    6064.5718    16117.588 
   50100   -254659.39    92.106497   -254567.28      450.137    6159.4948    16117.588 
   50200   -254661.72    91.628344   -254570.09     447.8002    6033.9667    16117.588 
   50300   -254661.51    91.998446   -254569.51    449.60894    6102.5062    16117.588 
   50400   -254660.08    91.818213   -254568.26    448.72812    6040.9636    16117.588 
   50500   -254658.33    92.791371   -254565.54    453.48407    6111.3208    16117.588 
   50600   -254657.32    96.355308   -254560.97    470.90152    6389.1036    16117.588 
   50700   -254656.55    95.192898   -254561.36    465.22066    6294.3542    16117.588 
   50800   -254656.44    89.923849   -254566.51     439.4701    5919.9165    16117.588 
   50900   -254657.65    92.145558   -254565.51    450.32789      6065.63    16117.588 
   51000   -254657.16    92.824036   -254564.34    453.64371    6135.8237    16117.588 
   51100    -254658.2    92.258587   -254565.94    450.88028    6155.1246    16117.588 
   51200   -254660.81    91.433189   -254569.37    446.84645    6046.2216    16117.588 
   51300   -254659.17    88.693783   -254570.48     433.4586    5838.2087    16117.588 
   51400   -254659.77    94.004304   -254565.77    459.41184    6189.2843    16117.588 
   51500   -254657.11    93.457657   -254563.65     456.7403    6230.0102    16117.588 
   51600   -254658.55    92.813803   -254565.74     453.5937    6111.9124    16117.588 
   51700   -254659.73    91.508892   -254568.22    447.21642    6069.9288    16117.588 
   51800   -254660.41    92.018013    -254568.4    449.70457    6089.5948    16117.588 
   51900   -254657.47    90.256393   -254567.21    441.09529    6030.6989    16117.588 
   52000   -254659.59    94.818518   -254564.77    463.39102    6290.4742    16117.588 
   52100    -254654.2    89.945134   -254564.26    439.57412    6038.7263    16117.588 
   52200   -254657.05    91.654863   -254565.39     447.9298    6071.5208    16117.588 
   52300   -254660.92       91.473   -254569.45    447.04101    6022.7437    16117.588 
   52400   -254663.48    90.836186   -254572.64    443.92882    6024.7554    16117.588 
   52500   -254663.11     91.75627   -254571.36    448.42539    6035.5624    16117.588 
   52600   -254660.29    90.551347   -254569.74    442.53677    5962.2961    16117.588 
   52700   -254658.54    90.510076   -254568.03    442.33507    6045.3768    16117.588 
   52800   -254657.95    90.792788   -254567.15    443.71673    6155.3838    16117.588 
   52900   -254658.42     92.09255   -254566.32    450.06884    6064.6992    16117.588 
   53000   -254657.74    95.331404   -254562.41    465.89756    6275.7545    16117.588 
   53100   -254657.41    96.443694   -254560.97    471.33347    6469.9777    16117.588 
   53200   -254658.36    92.416074   -254565.94    451.64995    6083.5595    16117.588 
   53300   -254659.87    91.941703   -254567.93    449.33163    6052.4246    16117.588 
   53400   -254661.52    91.999479   -254569.52    449.61399    6083.3993    16117.588 
   53500   -254661.53     90.27049   -254571.26    441.16419    5942.6785    16117.588 
   53600   -254659.95    88.276281   -254571.67    431.41821    5810.1149    16117.588 
   53700   -254660.13    93.873016   -254566.25    458.77022    6181.6404    16117.588 
   53800   -254659.23    94.228014      -254565    460.50514     6291.028    16117.588 
   53900   -254660.52    93.866287   -254566.65    458.73734    6211.0715    16117.588 
   54000   -254662.62    91.964543   -254570.66    449.44325    6084.7517    16117.588 
   54100   -254661.41    90.795682   -254570.61    443.73087    6008.0264    16117.588 
   54200   -254661.35    91.257104    -254570.1     445.9859    6007.5879    16117.588 
   54300   -254658.85    89.711869   -254569.14    438.43413    5936.7111    16117.588 
   54400   -254659.15    93.997686   -254565.15     459.3795    6189.9908    16117.588 
   54500   -254654.33    92.467113   -254561.86    451.89938    6113.8948    16117.588 
   54600   -254658.66    95.415704   -254563.24    466.30955    6320.4502    16117.588 
   54700   -254657.96    92.019202   -254565.94    449.71038    6058.5073    16117.588 
   54800   -254658.26    91.072052   -254567.19    445.08153    5996.5553    16117.588 
   54900   -254658.25     90.22333   -254568.02    440.93371    5938.8554    16117.588 
   55000   -254658.69    91.237162   -254567.45    445.88844    6047.9762    16117.588 
   55100   -254657.26     92.83997   -254564.42    453.72158      6153.85    16117.588 
   55200    -254657.6     93.39514    -254564.2    456.43477    6386.3389    16117.588 
   55300   -254658.65    92.115237   -254566.53    450.17971    6059.8635    16117.588 
   55400   -254658.11    88.120441   -254569.99     430.6566     5798.751    16117.588 
   55500   -254657.48     88.15395   -254569.32    430.82037    5955.3222    16117.588 
   55600   -254656.84    91.739563    -254565.1    448.34374    6074.4646    16117.588 
   55700   -254656.33    92.332661      -254564    451.24229    6077.4538    16117.588 
   55800   -254657.48    93.387388    -254564.1    456.39689    6255.1768    16117.588 
   55900   -254657.86    91.502497   -254566.36    447.18517      6017.98    16117.588 
   56000    -254658.8    90.148944   -254568.66    440.57017    5928.0063    16117.588 
   56100   -254662.43    93.320386   -254569.11    456.06944    6172.4985    16117.588 
   56200   -254657.52    92.303451   -254565.22    451.09954    6073.1783    16117.588 
   56300   -254657.82    94.717117    -254563.1    462.89545    6232.4822    16117.588 
   56400   -254659.29    93.220957   -254566.07    455.58352    6170.7671    16117.588 
   56500   -254656.19    88.239227   -254567.95    431.23712      6119.74    16117.588 
   56600   -254658.65    93.330746   -254565.32    456.12007    6191.7668    16117.588 
   56700   -254656.85    97.279269   -254559.57    475.41704    6402.9803    16117.588 
   56800   -254653.92    93.566624   -254560.36    457.27284    6150.4243    16117.588 
   56900    -254655.4    92.145324   -254563.25    450.32675    6088.2209    16117.588 
   57000   -254657.46    92.075349   -254565.39    449.98477     6059.115    16117.588 
   57100   -254657.22    90.853233   -254566.37    444.01213    5974.9563    16117.588 
   57200   -254657.68    91.277463    -254566.4     446.0854    6032.2264    16117.588 
   57300   -254655.14    90.589163   -254564.55    442.72158    5986.8971    16117.588 
   57400   -254655.77    94.669065    -254561.1    462.66062    6249.7493    16117.588 
   57500   -254654.73    92.190003   -254562.54    450.54511    6064.5867    16117.588 
   57600   -254658.07    91.571212    -254566.5    447.52099    6022.0916    16117.588 
   57700   -254657.31    90.274979   -254567.04    441.18612    5938.2909    16117.588 
   57800   -254654.86    89.597413   -254565.27    437.87477    5893.3283    16117.588 
   57900    -254657.9     93.76979   -254564.13    458.26574     6173.004    16117.588 
   58000   -254655.92    91.130717   -254564.79    445.36823    6025.4426    16117.588 
   58100   -254660.88    94.874666   -254566.01    463.66542    6244.6898    16117.588 
   58200   -254656.88    89.945514   -254566.94    439.57598    5968.6409    16117.588 
   58300   -254656.15    92.244685   -254563.91    450.81234    6096.7925    16117.588 
   58400   -254654.65    95.845004    -254558.8    468.40759    6308.8253    16117.588 
   58500   -254655.31    93.125116   -254562.19    455.11513    6200.0596    16117.588 
   58600   -254656.51    90.448613   -254566.06     442.0347    5978.2216    16117.588 
   58700    -254656.2    89.681802   -254566.52    438.28719    5899.9511    16117.588 
   58800   -254657.58    92.657638   -254564.92     452.8305    6095.2509    16117.588 
   58900   -254657.56    96.935622   -254560.63    473.73759    6382.6562    16117.588 
   59000   -254654.06    94.523702   -254559.54    461.95021    6221.5179    16117.588 
   59100   -254653.02    89.080628   -254563.94    435.34916    5890.9505    16117.588 
   59200   -254655.96    89.632646   -254566.33    438.04695    5898.2716    16117.588 
   59300   -254656.81    92.114816    -254564.7    450.17765    6062.1018    16117.588 
   59400   -254654.32    90.803233   -254563.51    443.76777    6023.7018    16117.588 
   59500   -254656.36    92.029954   -254564.33    449.76293    6087.0651    16117.588 
   59600   -254657.67    89.802007   -254567.87    438.87464    5910.1565    16117.588 
   59700   -254657.95    88.347362    -254569.6     431.7656    5861.5886    16117.588 
   59800    -254660.2    91.863348   -254568.34     448.9487    6046.8662    16117.588 
   59900   -254659.42    92.261485   -254567.16    450.89445    6123.7939    16117.588 
   60000    -254657.3    93.404501   -254563.89    456.48052    6187.6137    16117.588 
   60100   -254654.63    93.185772   -254561.44    455.41156    6134.6396    16117.588 
   60200   -254657.77    93.895015   -254563.88    458.87773    6210.0801    16117.588 
   60300    -254658.1     90.03787   -254568.06    440.02734    5927.6306    16117.588 
   60400   -254659.27      92.6532   -254566.61    452.80881    6100.4631    16117.588 
   60500   -254658.23    92.830611    -254565.4    453.67584    6112.2003    16117.588 
   60600   -254657.18    93.398998   -254563.78    456.45363    6218.3831    16117.588 
   60700   -254654.88    94.597271   -254560.28    462.30975    6260.0943    16117.588 
   60800   -254655.01    96.682684   -254558.33    472.50145    6462.2129    16117.588 
   60900   -254658.02    93.944875   -254564.08     459.1214    6187.4712    16117.588 
   61000   -254658.13    91.788152   -254566.34     448.5812    6143.2824    16117.588 
   61100   -254660.92    92.491747   -254568.43    452.01977    6233.8751    16117.588 
   61200   -254662.85    92.668791   -254570.18    452.88501    6211.7729    16117.588 
   61300   -254662.36    91.759619    -254570.6    448.44176    6092.6141    16117.588 
   61400   -254660.79      90.1875    -254570.6     440.7586    5973.4172    16117.588 
   61500   -254658.89    92.312318   -254566.58    451.14287    6223.2857    16117.588 
   61600   -254657.12    93.206816   -254563.91    455.51441    6135.6584    16117.588 
   61700   -254658.28    94.129362   -254564.15    460.02302    6198.0189    16117.588 
   61800   -254659.59    93.539587   -254566.05    457.14071    6203.0712    16117.588 
   61900   -254661.94    91.209346   -254570.73     445.7525    6006.7457    16117.588 
   62000   -254663.29    92.352405   -254570.94    451.33878    6081.9388    16117.588 
   62100   -254657.25    88.599541   -254568.65    432.99803    5874.3232    16117.588 
   62200   -254656.66    90.693508   -254565.97    443.23153    6038.9253    16117.588 
   62300   -254657.82    91.968399   -254565.85     449.4621    6055.4277    16117.588 
   62400    -254658.6    93.033209   -254565.57    454.66597    6227.6845    16117.588 
   62500   -254658.24    91.261808   -254566.98    446.00889    6010.1368    16117.588 
   62600   -254658.71    89.309027    -254569.4    436.46538    6027.4818    16117.588 
   62700    -254659.1    91.639796   -254567.46    447.85617     6033.257    16117.588 
   62800    -254658.9    95.890986   -254563.01    468.63231    6314.1525    16117.588 
   62900   -254657.63    93.900145   -254563.73     458.9028    6269.6483    16117.588 
   63000   -254657.23    90.891941   -254566.34     444.2013    6032.5588    16117.588 
   63100   -254659.39    91.439536   -254567.95    446.87747    6022.0586    16117.588 
   63200   -254658.91    92.987903   -254565.92    454.44455    6200.6852    16117.588 
   63300   -254652.66    92.174324   -254560.49    450.46848    6122.0301    16117.588 
   63400   -254654.87    93.518338   -254561.35    457.03686    6158.5227    16117.588 
   63500   -254658.38    92.893674   -254565.48    453.98404     6147.434    16117.588 
   63600   -254659.15    91.473857   -254567.68     447.0452    6024.5295    16117.588 
   63700   -254660.32    92.803803   -254567.52    453.54483    6112.5326    16117.588 
   63800   -254657.05    92.801149   -254564.25    453.53186    6111.5304    16117.588 
   63900   -254653.73    93.307281   -254560.42     456.0054    6145.2669    16117.588 
   64000   -254655.07    93.461264    -254561.6    456.75793    6144.1885    16117.588 
   64100   -254654.37    91.006334   -254563.36    444.76035    6014.0798    16117.588 
   64200   -254654.66    90.507474   -254564.15    442.32236    5959.7029    16117.588 
   64300   -254654.65     89.87176   -254564.78    439.21554    5919.1871    16117.588 
   64400   -254659.39    95.141637   -254564.25    464.97014    6302.6259    16117.588 
   64500   -254655.94    89.838459    -254566.1    439.05279    5916.8487    16117.588 
   64600    -254658.2    92.347837   -254565.85    451.31646    6081.9924    16117.588 
   64700   -254654.98    91.881325    -254563.1    449.03655    6111.5055    16117.588 
   64800   -254653.84    93.951315   -254559.89    459.15288    6188.1171    16117.588 
   64900   -254653.83    92.873228   -254560.96    453.88412    6097.7404    16117.588 
   65000   -254656.72    91.130084   -254565.59    445.36514    6057.1839    16117.588 
   65100   -254659.21     91.92414   -254567.29     449.2458    6051.8981    16117.588 
   65200   -254660.32    92.120944    -254568.2     450.2076    6066.0432    16117.588 
   65300   -254657.42    90.886734   -254566.54    444.17585    5984.4471    16117.588 
   65400   -254658.28    95.679785    -254562.6    467.60015    6303.4756    16117.588 
   65500   -254656.89    93.271838   -254563.61    455.83218    6145.3459    16117.588 
   65600    -254656.4    90.503232    -254565.9    442.30162     5961.407    16117.588 
   65700   -254657.63    90.995925   -254566.63    444.70948    6098.3515    16117.588 
   65800   -254656.75    91.520016   -254565.23    447.27079     6029.244    16117.588 
   65900    -254657.9    93.590234   -254564.31    457.38823    6165.4592    16117.588 
   66000   -254657.87    93.325534   -254564.54     456.0946    6233.5702    16117.588 
   66100   -254658.93     92.27797   -254566.65    450.97501    6078.6121    16117.588 
   66200   -254659.95    92.482014   -254567.47     451.9722    6129.8496    16117.588 
   66300    -254656.9    91.347858   -254565.56    446.42943    6058.0328    16117.588 
   66400   -254653.81     92.31328    -254561.5    451.14758    6078.9426    16117.588 
   66500   -254655.01    94.726668   -254560.29    462.94213    6238.3963    16117.588 
   66600   -254654.42    92.948699   -254561.48    454.25295    6148.6755    16117.588 
   66700   -254654.62    90.871354   -254563.75    444.10069    5982.6492    16117.588 
   66800    -254655.4    91.976143   -254563.42    449.49994    6056.2804    16117.588 
   66900   -254656.35    91.796439   -254564.55     448.6217    6159.0622    16117.588 
   67000   -254657.88    91.086765   -254566.79    445.15343    6022.6879    16117.588 
   67100   -254660.22    90.485488   -254569.74    442.21491    5990.9043    16117.588 
   67200   -254661.15     89.20143   -254571.95    435.93954    5874.4994    16117.588 
   67300   -254659.56    91.502173   -254568.06    447.18359    6125.8699    16117.588 
   67400   -254659.17    93.983178   -254565.19     459.3086    6188.5172    16117.588 
   67500   -254659.59    92.469549   -254567.12    451.91129    6090.3242    16117.588 
   67600   -254659.54    90.409169   -254569.13    441.84192    5954.2799    16117.588 
   67700   -254659.82    93.353906   -254566.46    456.23326    6148.4304    16117.588 
   67800   -254655.48    91.270418   -254564.21    446.05097    6012.1165    16117.588 
   67900   -254658.84    94.715371   -254564.12    462.88692    6240.1323    16117.588 
   68000   -254657.35    91.785379   -254565.56    448.56765    6047.0852    16117.588 
   68100   -254658.37    91.991656   -254566.38    449.57575    6060.3722    16117.588 
   68200   -254656.42    92.789531   -254563.63    453.47508    6193.7946    16117.588 
   68300   -254653.32    93.640899   -254559.68    457.63583    6170.2622    16117.588 
   68400   -254653.69    92.003202   -254561.69    449.63218    6218.0295    16117.588 
   68500   -254656.33    91.815367   -254564.52    448.71421    6098.6219    16117.588 
   68600   -254657.04    91.973824   -254565.07    449.48861     6059.425    16117.588 
   68700   -254654.27    89.294381   -254564.97    436.39381    6057.4033    16117.588 
   68800    -254655.5      93.8578   -254561.64    458.69586    6182.7713    16117.588 
   68900   -254655.55    98.962852   -254556.58    483.64494    6559.4603    16117.588 
   69000   -254653.06    93.011559   -254560.05    454.56016    6165.4226    16117.588 
   69100   -254655.42    93.194535   -254562.22    455.45439    6187.2609    16117.588 
   69200   -254656.67    91.477825   -254565.19    447.06459    6024.4392    16117.588 
   69300   -254656.37    89.024906   -254567.35    435.07685    5862.3109    16117.588 
   69400   -254659.39    93.099056   -254566.29    454.98777    6131.6368    16117.588 
   69500   -254659.31    95.634036   -254563.67    467.37656    6298.8737    16117.588 
   69600   -254660.49    90.980565   -254569.51    444.63442    5990.3082    16117.588 
   69700    -254661.2    90.245978   -254570.96    441.04439    5964.7369    16117.588 
   69800    -254659.7     91.60748   -254568.09    447.69824    6087.7922    16117.588 
   69900   -254656.77    92.120914   -254564.65    450.20746    6099.8965    16117.588 
   70000   -254654.88    92.090806   -254562.79    450.06031    6100.2496    16117.588 
   70100   -254653.75    90.226478   -254563.53    440.94909    6007.6319    16117.588 
   70200   -254657.81    90.294592   -254567.51    441.28197    5998.3153    16117.588 
   70300    -254660.6    89.722725   -254570.87    438.48718    5969.4648    16117.588 
   70400   -254660.31    89.454091   -254570.86    437.17433    6032.0615    16117.588 
   70500   -254662.83    92.934383    -254569.9    454.18299    6191.8048    16117.588 
   70600   -254658.59    90.045388   -254568.55    440.06408    5926.7514    16117.588 
   70700   -254656.96    93.751984   -254563.21    458.17872    6166.8635    16117.588 
   70800   -254657.42    94.365537   -254563.05    461.17724    6184.7354    16117.588 
   70900    -254658.3    91.845873   -254566.45    448.86329    6043.0944    16117.588 
   71000   -254660.57    92.532234   -254568.04    452.21763    6120.6876    16117.588 
   71100   -254659.34    91.886855   -254567.45    449.06358    6047.1275    16117.588 
   71200   -254659.12    92.004885   -254567.12    449.64041     6049.254    16117.588 
   71300   -254660.77    92.463174   -254568.31    451.88013     6183.949    16117.588 
   71400   -254658.17    89.360569   -254568.81    436.71727    5978.4514    16117.588 
   71500   -254661.44    93.409249   -254568.03    456.50373    6189.6991    16117.588 
   71600   -254660.68    92.500062   -254568.18    452.06041    6089.2053    16117.588 
   71700   -254661.69    91.336319   -254570.35    446.37304     6086.044    16117.588 
   71800    -254662.4    88.354291   -254574.04    431.79946    5843.7419    16117.588 
   71900   -254663.79    90.770287   -254573.02    443.60676    5975.1107    16117.588 
   72000   -254660.29    90.959197   -254569.33    444.52999    5987.1364    16117.588 
   72100   -254659.87    91.737084   -254568.13    448.33163    6036.1733    16117.588 
   72200   -254660.95    95.200861   -254565.75    465.25958    6269.3777    16117.588 
   72300   -254655.14     91.03419    -254564.1    444.89649    6021.6271    16117.588 
   72400   -254656.65    95.715853   -254560.94    467.77641    6388.2535    16117.588 
   72500    -254655.5    96.050252   -254559.45    469.41067    6324.5533    16117.588 
   72600   -254656.98    92.502737   -254564.48    452.07348    6123.8035    16117.588 
   72700   -254658.52     90.46679   -254568.05    442.12353    5950.4137    16117.588 
   72800   -254658.93     89.36694   -254569.56    436.74841    5968.0132    16117.588 
   72900   -254658.43    90.451531   -254567.98    442.04895    5974.4478    16117.588 
   73000   -254658.22    93.279709   -254564.94    455.87064    6167.3119    16117.588 
   73100   -254660.04    93.197774   -254566.84    455.47022    6130.7188    16117.588 
   73200   -254661.66     92.09844   -254569.56    450.09762    6061.8492    16117.588 
   73300   -254660.14    90.697292   -254569.44    443.25002    5967.2809    16117.588 
   73400   -254657.44     89.71568   -254567.73    438.45275    5902.2167    16117.588 
   73500   -254658.72    94.203259   -254564.51    460.38416    6198.7883    16117.588 
   73600   -254655.66    92.383623   -254563.27    451.49135    6109.5991    16117.588 
   73700   -254658.29    93.309962   -254564.98     456.0185    6141.5151    16117.588 
   73800   -254660.64    91.922801   -254568.71    449.23925    6092.3244    16117.588 
   73900   -254658.64    90.267362   -254568.37     441.1489    5939.3423    16117.588 
   74000   -254658.73    91.215549   -254567.52    445.78281    6003.1877    16117.588 
   74100   -254658.59    93.461622   -254565.13    456.75968    6187.2259    16117.588 
   74200   -254658.09    93.458498   -254564.63    456.74441    6183.9762    16117.588 
   74300    -254658.1    89.187175   -254568.91    435.86988    5869.2004    16117.588 
   74400      -254662     92.15855   -254569.85    450.39139    6067.6758    16117.588 
   74500   -254658.46    90.589149   -254567.88    442.72151    5992.2103    16117.588 
   74600   -254656.21    90.699994   -254565.51    443.26323    5970.7159    16117.588 
   74700   -254656.05    93.007288   -254563.04    454.53929    6175.1974    16117.588 
   74800   -254656.18    93.293632   -254562.89    455.93869    6192.9808    16117.588 
   74900   -254657.47    90.984832   -254566.48    444.65527    5988.2903    16117.588 
   75000   -254660.89    90.922549   -254569.97    444.35089    6014.9913    16117.588 
   75100   -254656.41    86.483744   -254569.93    422.65784     5689.543    16117.588 
   75200   -254660.02    92.444356   -254567.57    451.78816    6116.7032    16117.588 
   75300      -254660    94.493501   -254565.51    461.80261    6220.0257    16117.588 
   75400   -254657.68    92.371866    -254565.3     451.4339    6081.4126    16117.588 
   75500   -254656.35    89.616972   -254566.74    437.97035    5898.2176    16117.588 
   75600   -254661.32    90.883417   -254570.44    444.15964    5982.8334    16117.588 
   75700   -254662.03    90.425722    -254571.6    441.92282    6034.3154    16117.588 
   75800   -254658.02    90.397914   -254567.62    441.78692    5990.7014    16117.588 
   75900   -254657.51    92.624614   -254564.89    452.66911    6098.1645    16117.588 
   76000   -254655.52    90.610637   -254564.91    442.82653    5964.5182    16117.588 
   76100   -254659.28    93.796448   -254565.48    458.39602    6206.8342    16117.588 
   76200   -254659.37    95.188149   -254564.18    465.19745    6298.2702    16117.588 
   76300   -254656.87    94.742993   -254562.13    463.02191    6276.1276    16117.588 
   76400   -254657.62    94.674252   -254562.94    462.68597     6281.288    16117.588 
   76500   -254656.74    89.825509   -254566.92     438.9895    5936.8916    16117.588 
   76600   -254656.62    88.835883   -254567.79    434.15307    5846.9594    16117.588 
   76700   -254661.02    94.916714   -254566.11    463.87091    6251.0907    16117.588 
   76800   -254657.12    91.060288   -254566.06    445.02403    5997.3169    16117.588 
   76900   -254659.66    91.860414    -254567.8    448.93436    6050.7843    16117.588 
   77000   -254659.11    90.086858   -254569.02    440.26675      5930.86    16117.588 
   77100   -254658.77    92.500553   -254566.27     452.0628    6091.9199    16117.588 
   77200   -254656.17    92.984682   -254563.19    454.42881    6150.7595    16117.588 
   77300   -254653.96    91.545723   -254562.41    447.39642    6027.4321    16117.588 
   77400   -254655.87    92.097439   -254563.77    450.09273    6063.9553    16117.588 
   77500   -254657.92    90.440268   -254567.48    441.99391    5956.0933    16117.588 
   77600   -254659.94    88.016201   -254571.92    430.14717    5793.6184    16117.588 
   77700   -254658.63    89.209169   -254569.43    435.97736    5912.9979    16117.588 
   77800   -254657.83    91.322594   -254566.51    446.30596    6061.5381    16117.588 
   77900   -254658.29    92.181257   -254566.11    450.50236    6189.8866    16117.588 
   78000    -254657.9    91.601132    -254566.3    447.66721     6031.723    16117.588 
   78100   -254657.22     94.58941   -254562.63    462.27134     6314.277    16117.588 
   78200    -254656.4     96.24766   -254560.16    470.37543     6387.469    16117.588 
   78300   -254658.81    95.027625   -254563.78    464.41295    6257.9346    16117.588 
   78400   -254657.71    90.369346   -254567.34    441.64731    5950.3747    16117.588 
   78500   -254657.19    89.992447    -254567.2    439.80535    5923.7607    16117.588 
   78600    -254659.7    93.595929    -254566.1    457.41606    6163.5952    16117.588 
   78700   -254656.01    91.089302   -254564.92    445.16583    6128.5808    16117.588 
   78800   -254657.74    93.951371   -254563.79    459.15315     6304.453    16117.588 
   78900   -254658.25    94.129812   -254564.12    460.02522    6224.5921    16117.588 
   79000   -254658.57    89.700992   -254568.87    438.38097    5904.0986    16117.588 
   79100   -254657.67    88.230754   -254569.44    431.19571    5806.3553    16117.588 
   79200    -254659.1    92.955625   -254566.15     454.2868    6119.4428    16117.588 
   79300    -254656.3    91.731465   -254564.57    448.30417    6135.8749    16117.588 
   79400   -254655.18      90.8765    -254564.3    444.12584    5978.0538    16117.588 
   79500   -254656.99    92.387579    -254564.6    451.51068    6079.0362    16117.588 
   79600   -254657.77     91.58029   -254566.19    447.56535    6027.8875    16117.588 
   79700   -254659.69       87.505   -254572.18    427.64886    5813.9917    16117.588 
   79800   -254660.88    89.790001   -254571.09    438.81597    5909.4848    16117.588 
   79900   -254660.28    92.507293   -254567.77    452.09575    6154.0335    16117.588 
   80000      -254657    90.730371   -254566.27    443.41168    6137.9424    16117.588 
   80100   -254657.25    92.632713   -254564.61    452.70869    6204.3254    16117.588 
   80200   -254656.67    94.602654   -254562.06    462.33606    6227.5015    16117.588 
   80300   -254654.55    93.715318   -254560.83    457.99953    6167.3752    16117.588 
   80400   -254657.36    92.798577   -254564.56    453.51929    6109.0826    16117.588 
   80500   -254658.39    90.902431   -254567.49    444.25256    5984.1182    16117.588 
   80600   -254658.04    90.588721   -254567.46    442.71942    6066.8842    16117.588 
   80700   -254658.12    93.022657    -254565.1     454.6144    6307.4761    16117.588 
   80800   -254652.26    91.826246   -254560.43    448.76738    6076.5343    16117.588 
   80900   -254651.02    91.898475   -254559.12    449.12037    6052.4272    16117.588 
   81000   -254656.13    95.321501   -254560.81    465.84916    6305.6944    16117.588 
   81100   -254657.45    93.306542   -254564.15    456.00178     6205.687    16117.588 
   81200   -254658.12    92.590466   -254565.53    452.50222    6096.0669    16117.588 
   81300   -254658.67    91.992532   -254566.68    449.58004    6088.7172    16117.588 
   81400   -254661.48    92.015683   -254569.46    449.69318    6059.6005    16117.588 
   81500   -254661.42    89.626274    -254571.8    438.01581    5901.6573    16117.588 
   81600   -254661.85    92.477666   -254569.37    451.95095    6090.5828    16117.588 
   81700   -254657.34    92.585398   -254564.75    452.47745    6198.4261    16117.588 
   81800   -254655.46    92.646649   -254562.81    452.77679    6101.1906    16117.588 
   81900   -254656.58     93.76868   -254562.81    458.26031    6214.7255    16117.588 
   82000    -254659.2    93.747174   -254565.45    458.15521    6173.2178    16117.588 
   82100   -254659.71    90.145681   -254569.57    440.55422     6040.599    16117.588 
   82200   -254657.81    89.625861   -254568.19    438.01379    5900.6727    16117.588 
   82300   -254656.54    90.450816   -254566.09    442.04546    5955.3535    16117.588 
   82400   -254658.73    93.920688   -254564.81     459.0032    6186.7908    16117.588 
   82500   -254655.23    91.169162   -254564.06    445.55611    6002.7566    16117.588 
   82600   -254656.98    94.954948   -254562.02    464.05777     6352.759    16117.588 
   82700   -254658.23    95.769768   -254562.46     468.0399    6309.8543    16117.588 
   82800   -254657.45    90.710854   -254566.74     443.3163    5973.8929    16117.588 
   82900   -254659.39     91.61284   -254567.77    447.72443    6138.5903    16117.588 
   83000   -254658.64    91.987575   -254566.66    449.55581    6081.1873    16117.588 
   83100   -254659.31    95.250715   -254564.06    465.50322    6275.6403    16117.588 
   83200   -254658.18    94.950457   -254563.23    464.03582    6334.2874    16117.588 
   83300   -254659.51    91.931414   -254567.57    449.28135    6053.8381    16117.588 
   83400   -254659.04     89.92594   -254569.11    439.48032    6000.2102    16117.588 
   83500    -254659.2    90.677995   -254568.52    443.15572    5972.5978    16117.588 
   83600   -254654.57    90.303587   -254564.27    441.32593     5988.086    16117.588 
   83700   -254656.05    94.361508   -254561.69    461.15754    6238.3014    16117.588 
   83800   -254655.91    91.771054   -254564.14    448.49764    6044.8217    16117.588 
   83900   -254658.04    91.811881   -254566.22    448.69717    6048.9689    16117.588 
   84000   -254660.64     91.75476   -254568.89    448.41801    6098.3762    16117.588 
   84100   -254662.81    90.058146   -254572.75    440.12643    5980.3704    16117.588 
   84200   -254661.44    87.921529   -254573.52    429.68449    5826.5968    16117.588 
   84300   -254659.07    90.847676   -254568.22    443.98497    6006.6816    16117.588 
   84400   -254662.39    94.711412   -254567.67    462.86757    6264.8073    16117.588 
   84500   -254660.09    90.681348   -254569.41     443.1721    6010.0168    16117.588 
   84600   -254660.59    89.141538   -254571.45    435.64684    5946.3423    16117.588 
   84700   -254662.67    90.254088   -254572.42    441.08402    5944.6936    16117.588 
   84800   -254659.23    91.948118   -254567.29    449.36298    6058.1229    16117.588 
   84900   -254658.85    93.609227   -254565.25    457.48105    6164.4596    16117.588 
   85000   -254656.06    89.779745   -254566.28    438.76585    5970.6175    16117.588 
   85100   -254657.17    90.024407   -254567.15    439.96154    5966.7782    16117.588 
   85200   -254658.35     90.00585   -254568.34    439.87085    5927.5418    16117.588 
   85300   -254660.09    92.816179   -254567.28    453.60531    6279.1473    16117.588 
   85400   -254661.08    93.593378   -254567.49    457.40359    6243.5356    16117.588 
   85500   -254660.01    91.947426   -254568.07     449.3596    6197.4342    16117.588 
   85600    -254659.5     90.19961    -254569.3    440.81778     5940.873    16117.588 
   85700   -254661.12    94.482042   -254566.64    461.74661    6224.1441    16117.588 
   85800   -254658.24    92.896639   -254565.34    453.99853    6119.1734    16117.588 
   85900   -254661.51    93.794459   -254567.72     458.3863    6251.6262    16117.588 
   86000   -254659.49    87.884792   -254571.61    429.50495    5786.9426    16117.588 
   86100   -254658.68     89.25658   -254569.42    436.20907    5941.8273    16117.588 
   86200   -254657.78    91.931281   -254565.85     449.2807    6054.8696    16117.588 
   86300    -254659.8    94.920685   -254564.87    463.89032    6291.8753    16117.588 
   86400   -254658.26    91.808902   -254566.45    448.68261    6199.5689    16117.588 
   86500   -254658.37    90.560172   -254567.81     442.5799    6028.5826    16117.588 
   86600   -254660.28    88.440051   -254571.84    432.21858    5822.1443    16117.588 
   86700   -254661.09    89.615788   -254571.47    437.96456    5986.9511    16117.588 
   86800   -254661.46    93.836555   -254567.62    458.59203    6232.8367    16117.588 
   86900   -254658.41    92.102837   -254566.31    450.11911    6118.7621    16117.588 
   87000   -254660.08      93.8599   -254566.22    458.70612    6175.3089    16117.588 
   87100   -254659.73    93.920252   -254565.81    459.00107    6184.0954    16117.588 
   87200   -254657.87    92.464836   -254565.41    451.88825    6124.6312    16117.588 
   87300   -254657.89    91.662456   -254566.22    447.96691    6035.1849    16117.588 
   87400   -254656.84    88.937623    -254567.9    434.65028    5853.8643    16117.588 
   87500   -254658.45    92.267698   -254566.18    450.92481    6118.0527    16117.588 
   87600   -254658.31    93.841561   -254564.47     458.6165    6180.5952    16117.588 
   87700   -254659.19    94.493505    -254564.7    461.80263    6220.7048    16117.588 
   87800   -254662.68    92.872119   -254569.81     453.8787    6115.0829    16117.588 
   87900   -254661.54    90.408793   -254571.14    441.84009    5952.8476    16117.588 
   88000    -254657.6    88.609214   -254568.99     433.0453    5946.9919    16117.588 
   88100   -254660.43    94.315231   -254566.12    460.93138    6209.5513    16117.588 
   88200   -254661.48    93.724083   -254567.75    458.04236    6255.0545    16117.588 
   88300   -254661.56    92.803769   -254568.75    453.54466    6110.2643    16117.588 
[...]
  408900   -254661.19    92.165539   -254569.02    450.42555     6062.878    16117.588 
  409000   -254658.92    90.914064      -254568    444.30942    6008.7076    16117.588 
  409100   -254659.61    95.956462   -254563.66     468.9523     6312.198    16117.588 
  409200   -254653.65    91.418398   -254562.24    446.77417    6012.3988    16117.588 
  409300   -254655.21    90.367967   -254564.84    441.64057    5945.5827    16117.588 
  409400   -254658.71    89.188684   -254569.52    435.87725    5894.7655    16117.588 
  409500   -254659.44    89.700966   -254569.74    438.38084     6034.336    16117.588 
  409600   -254659.03    90.990909   -254568.04    444.68497    5984.9938    16117.588 
  409700    -254659.3    92.609474   -254566.69    452.59512    6316.8089    16117.588 
  409800   -254659.49    94.103863   -254565.38     459.8984    6225.4403    16117.588 
  409900   -254655.86    93.378583   -254562.49    456.35385    6144.5373    16117.588 
  410000   -254654.26    94.393459   -254559.87     461.3137    6240.1269    16117.588 
  410100   -254656.21    92.917257   -254563.29    454.09929    6116.3837    16117.588 
  410200   -254659.68    93.435966   -254566.24     456.6343    6150.7411    16117.588 
  410300   -254659.16    92.432717   -254566.73    451.73128    6080.6546    16117.588 
  410400   -254657.18    90.763188   -254566.41    443.57206    6005.3344    16117.588 
  410500   -254658.38    95.009081   -254563.37    464.32232    6341.0509    16117.588 
  410600   -254655.88    94.075446    -254561.8    459.75952    6190.0296    16117.588 
  410700   -254658.31    94.053976   -254564.26     459.6546    6285.9004    16117.588 
  410800   -254657.19    89.741959   -254567.45    438.58118    5904.6749    16117.588 
  410900   -254661.71    94.180468   -254567.53    460.27278    6199.2793    16117.588 
  411000   -254659.69    93.572012   -254566.11    457.29917    6158.3543    16117.588 
  411100   -254656.18    91.899776   -254564.28    449.12673    6076.3636    16117.588 
  411200   -254654.41    91.640855   -254562.77    447.86134    6029.2671    16117.588 
  411300   -254655.67    93.004337   -254562.66    454.52486    6178.7286    16117.588 
  411400   -254654.29    89.059668   -254565.23    435.24673    5860.1516    16117.588 
  411500   -254655.83    87.703093   -254568.12    428.61696    5801.7467    16117.588 
  411600   -254657.19     90.63343   -254566.56    442.93792    6059.7685    16117.588 
  411700   -254657.28    94.811018   -254562.47    463.35436    6385.9405    16117.588 
  411800   -254654.14    95.018336   -254559.13    464.36756    6255.9767    16117.588 
  411900   -254652.96    92.943979   -254560.02    454.22989    6117.7706    16117.588 
  412000   -254657.39    92.467903   -254564.92    451.90324    6086.8211    16117.588 
  412100   -254658.86    92.204427   -254566.65     450.6156    6121.2071    16117.588 
  412200   -254659.56    91.593544   -254567.97    447.63013    6028.4495    16117.588 
  412300   -254660.32     91.76022   -254568.56    448.44469    6039.3981    16117.588 
  412400   -254661.12    90.867528   -254570.25    444.08199     6024.899    16117.588 
  412500   -254664.57    92.379985   -254572.19    451.47357    6123.4872    16117.588 
  412600    -254661.8    89.614429   -254572.18    437.95792    6056.3852    16117.588 
  412700   -254660.82    93.368942   -254567.45    456.30674    6145.8286    16117.588 
  412800   -254661.27    95.055289   -254566.22    464.54815    6258.4997    16117.588 
  412900   -254660.27    93.345862   -254566.92    456.19395    6144.0817    16117.588 
  413000   -254661.94    91.360543   -254570.58    446.49142    6048.2672    16117.588 
  413100   -254661.12    89.418577   -254571.71    437.00077    5927.1155    16117.588 
  413200    -254659.7    89.886148   -254569.82    439.28585    5912.6106    16117.588 
  413300   -254659.89    92.773615   -254567.12     453.3973    6105.5375    16117.588 
  413400   -254656.79     92.32377   -254564.47    451.19884    6135.8801    16117.588 
  413500   -254654.93    91.915839   -254563.02    449.20523    6095.2793    16117.588 
  413600   -254651.76    87.020431   -254564.73     425.2807    5805.3259    16117.588 
  413700   -254660.35     91.20645   -254569.15    445.73835    6032.7715    16117.588 
  413800   -254663.78    92.682581    -254571.1     452.9524    6098.6015    16117.588 
  413900   -254660.35    90.944443    -254569.4    444.45788    6013.1712    16117.588 
  414000   -254659.27    94.871299    -254564.4    463.64896    6245.5788    16117.588 
  414100    -254658.5    93.070561   -254565.43    454.84851    6183.0559    16117.588 
  414200   -254658.83    91.874832   -254566.95    449.00482    6046.2961    16117.588 
  414300    -254661.5    92.605951   -254568.89     452.5779    6094.4229    16117.588 
  414400   -254662.66    91.484207   -254571.17    447.09579    6021.0313    16117.588 
  414500   -254664.34    91.150756   -254573.19    445.46616    6106.6959    16117.588 
  414600   -254662.58     92.69411   -254569.89    453.00874    6099.8499    16117.588 
  414700   -254657.43    91.488923   -254565.94    447.11883    6019.3249    16117.588 
  414800   -254658.56    93.916643   -254564.64    458.98343    6177.7517    16117.588 
  414900   -254656.98    91.625667   -254565.36    447.78712    6077.6744    16117.588 
  415000    -254655.2    88.162774   -254567.04    430.86349    5861.5498    16117.588 
  415100   -254654.91    87.877544   -254567.04    429.46953    5861.3964    16117.588 
  415200   -254654.15    91.370352   -254562.78    446.53936    6084.0535    16117.588 
  415300   -254653.99    92.164192   -254561.83    450.41896    6064.4731    16117.588 
  415400   -254658.18    93.279993    -254564.9    455.87204    6139.0554    16117.588 
  415500   -254656.74    89.136874   -254567.61    435.62405    5866.6745    16117.588 
  415600   -254658.21    91.210778      -254567     445.7595    6048.8053    16117.588 
  415700   -254656.48    89.793636   -254566.69    438.83373    5959.6267    16117.588 
  415800   -254657.24    92.710557   -254564.53    453.08912     6149.653    16117.588 
  415900   -254656.84    95.005128   -254561.83    464.30301     6254.245    16117.588 
  416000   -254659.39    93.702575   -254565.69    457.93725    6284.3774    16117.588 
  416100   -254661.05     92.47867   -254568.57    451.95586    6086.6526    16117.588 
  416200    -254657.6    89.094822    -254568.5    435.41853    5861.7605    16117.588 
  416300   -254661.72    94.851594   -254566.87    463.55266    6270.6608    16117.588 
  416400   -254658.54    91.127364   -254567.41    445.35184    6141.2835    16117.588 
  416500   -254658.59    87.909352   -254570.68    429.62498    5827.5056    16117.588 
  416600   -254661.33     89.80268   -254571.53    438.87793    5973.0716    16117.588 
  416700   -254663.33    94.425808    -254568.9    461.47179    6211.3215    16117.588 
  416800   -254658.27    91.074921   -254567.19    445.09555    6017.5621    16117.588 
  416900   -254660.04     94.59701   -254565.45    462.30848    6268.3787    16117.588 
  417000   -254655.84    92.258057   -254563.59    450.87769    6069.9157    16117.588 
  417100   -254658.17    93.706944   -254564.47     457.9586    6168.0967    16117.588 
  417200   -254657.74    90.140861    -254567.6    440.53067    5930.5259    16117.588 
  417300   -254660.94    91.453276   -254569.49    446.94462    6018.3864    16117.588 
  417400    -254658.6    90.670911   -254567.93     443.1211    6022.1133    16117.588 
  417500    -254658.9     94.74737   -254564.16    463.04331    6235.9713    16117.588 
  417600   -254656.88     92.55226   -254564.33     452.3155    6090.5706    16117.588 
  417700    -254656.5     88.85963   -254567.64    434.26912    5847.0628    16117.588 
  417800    -254657.9    88.725366   -254569.17    433.61295    5837.8841    16117.588 
  417900   -254658.18    92.041054   -254566.14    449.81717    6057.5075    16117.588 
  418000   -254653.46    90.217734   -254563.24    440.90636    5936.9313    16117.588 
  418100   -254656.96    93.789378   -254563.17    458.36147    6173.1823    16117.588 
  418200   -254659.34    94.439995    -254564.9    461.54112    6266.5983    16117.588 
  418300   -254658.67    90.407355   -254568.26    441.83306    5947.9291    16117.588 
  418400   -254661.66    92.423129   -254569.24    451.68442    6124.5378    16117.588 
  418500   -254658.45    92.696281   -254565.75    453.01935    6146.0894    16117.588 
  418600   -254658.73    95.560341   -254563.16     467.0164    6352.4492    16117.588 
  418700   -254657.69    93.399737   -254564.29    456.45724    6145.6692    16117.588 
  418800   -254655.92    91.674484   -254564.25    448.02569    6087.6116    16117.588 
  418900   -254655.78    92.517774   -254563.26    452.14697    6089.0628    16117.588 
  419000   -254658.79      92.7523   -254566.04    453.29313    6101.6918    16117.588 
  419100   -254658.76    89.652481    -254569.1    438.14389    5899.4914    16117.588 
  419200   -254658.57    90.789802   -254567.78    443.70213     6016.348    16117.588 
  419300   -254656.34     91.34805   -254564.99    446.43037    6012.5953    16117.588 
  419400   -254656.49     92.82078   -254563.67     453.6278    6141.4418    16117.588 
  419500   -254654.95     89.76823   -254565.19    438.70957    5906.9629    16117.588 
  419600   -254658.38     92.02653   -254566.35    449.74619    6154.9845    16117.588 
  419700   -254659.38     92.73686   -254566.64    453.21767    6130.3055    16117.588 
  419800   -254658.01    91.952199   -254566.06    449.38292    6049.0453    16117.588 
  419900   -254656.68    91.857799   -254564.82    448.92158    6076.8609    16117.588 
  420000   -254655.97    93.319858   -254562.65    456.06686    6195.4899    16117.588 
  420100   -254657.01    93.165584   -254563.85     455.3129    6133.1196    16117.588 
  420200   -254656.88    89.643964   -254567.23    438.10227     5899.056    16117.588 
  420300   -254657.85    90.898351   -254566.95    444.23262    5983.3967    16117.588 
  420400   -254656.17    94.462744    -254561.7     461.6523    6220.0796    16117.588 
  420500    -254658.1    95.978926   -254562.12    469.06209    6319.6827    16117.588 
  420600   -254655.83    91.288929   -254564.54    446.14144     6007.983    16117.588 
  420700   -254656.72    92.219799    -254564.5    450.69072    6072.2064    16117.588 
  420800   -254657.68    94.329853   -254563.35    461.00284    6211.9297    16117.588 
  420900   -254658.37    95.496982   -254562.87    466.70676    6342.0792    16117.588 
  421000      -254657    93.268842   -254563.73    455.81754    6139.5503    16117.588 
  421100   -254657.45    91.878736   -254565.57     449.0239    6047.3579    16117.588 
  421200    -254656.9     90.10181    -254566.8    440.33982    5931.6698    16117.588 
  421300   -254656.54    91.320944   -254565.21    446.29789    6011.0927    16117.588 
  421400   -254655.88    94.742215   -254561.14    463.01811    6237.9317    16117.588 
  421500   -254652.71    90.953747   -254561.75    444.50335    6053.0706    16117.588 
  421600   -254656.83    92.416049   -254564.42    451.64982     6082.821    16117.588 
  421700   -254659.34    92.322515   -254567.01    451.19271    6077.8872    16117.588 
  421800   -254657.06    90.409315   -254566.65    441.84264    5949.4804    16117.588 
  421900   -254654.44    89.550416   -254564.89    437.64508    6025.6747    16117.588 
  422000    -254657.3    93.973746   -254563.33     459.2625    6188.7185    16117.588 
  422100   -254655.67     92.88965   -254562.78    453.96438    6115.3134    16117.588 
  422200   -254658.41    92.825748   -254565.59    453.65208     6198.506    16117.588 
  422300   -254660.37     91.62358   -254568.75    447.77692    6034.2751    16117.588 
  422400   -254659.79    90.263485   -254569.53    441.12995    5978.6963    16117.588 
  422500   -254656.15     89.26215   -254566.88    436.23629    5876.1397    16117.588 
  422600   -254655.08    92.529829   -254562.55    452.20588      6188.17    16117.588 
  422700   -254655.14    93.009128   -254562.13    454.54828    6122.5641    16117.588 
  422800   -254655.64    91.461806   -254564.18    446.98631    6086.8505    16117.588 
  422900   -254658.42    90.567206   -254567.86    442.61428     5988.909    16117.588 
  423000   -254658.96    91.218937   -254567.74    445.79937      6004.08    16117.588 
  423100    -254659.8    93.409582   -254566.39    456.50536    6151.8601    16117.588 
  423200   -254656.58    91.628556   -254564.95    447.80124    6081.6954    16117.588 
  423300   -254655.75    91.536773   -254564.21    447.35268    6026.4244    16117.588 
  423400   -254656.25    92.382377   -254563.87    451.48526    6081.9407    16117.588 
  423500   -254655.45    91.268218   -254564.19    446.04021    6286.0603    16117.588 
  423600    -254655.6    89.902851    -254565.7    439.36748    5944.4591    16117.588 
  423700   -254656.24    89.845144   -254566.39    439.08546    5913.8038    16117.588 
  423800   -254656.56     94.42982   -254562.13    461.49139    6256.8674    16117.588 
  423900   -254655.81    94.377506   -254561.43    461.23573    6212.9369    16117.588 
  424000   -254657.81     94.28846   -254563.52    460.80055    6246.4534    16117.588 
  424100   -254661.57    94.874571    -254566.7    463.66496    6247.5834    16117.588 
  424200   -254656.93    90.391217   -254566.54    441.75419    5976.1705    16117.588 
  424300   -254659.99    93.421736   -254566.57    456.56475     6177.744    16117.588 
  424400    -254659.1    92.276844   -254566.82    450.96951    6101.2804    16117.588 
  424500   -254656.89    92.179225   -254564.71    450.49243    6168.9056    16117.588 
  424600   -254659.32    94.163743   -254565.16    460.19104    6250.4784    16117.588 
  424700   -254657.56     88.67027   -254568.89    433.34369    5877.5702    16117.588 
  424800   -254660.45    90.842821    -254569.6    443.96124    5978.5809    16117.588 
  424900   -254658.15     89.08658   -254569.06    435.37825    5861.5404    16117.588 
  425000   -254657.98    93.800522   -254564.18    458.41593    6169.0379    16117.588 
  425100   -254656.23    92.465844   -254563.76    451.89318    6129.9598    16117.588 
  425200   -254656.61    91.342425   -254565.27    446.40288    6011.6109    16117.588 
  425300   -254659.21    91.618932   -254567.59     447.7542    6028.4904    16117.588 
  425400   -254656.81    87.186499   -254569.62     426.0923     5736.776    16117.588 
  425500   -254659.53    93.620009   -254565.91    457.53374    6163.6018    16117.588 
  425600   -254657.44    95.199165   -254562.24    465.25129    6294.1236    16117.588 
  425700   -254660.17      95.7875   -254564.38    468.12656    6307.2247    16117.588 
  425800   -254660.57    91.754901   -254568.81     448.4187    6073.2888    16117.588 
  425900   -254658.07    88.219955   -254569.85    431.14294    5856.0573    16117.588 
  426000   -254661.03    91.399726   -254569.63    446.68291    6016.1775    16117.588 
  426100   -254659.14    93.917145   -254565.22    458.98588    6183.1549    16117.588 
  426200    -254657.4    93.439093   -254563.96    456.64958    6185.7121    16117.588 
  426300   -254657.18    90.438187   -254566.74    441.98374    5979.3056    16117.588 
  426400   -254659.87    92.376623   -254567.49    451.45714    6078.1815    16117.588 
  426500   -254658.75    92.070776   -254566.68    449.96243    6144.4081    16117.588 
  426600   -254658.66    93.780363   -254564.88    458.31741    6203.4035    16117.588 
  426700   -254656.88    94.616141   -254562.26    462.40197    6226.2922    16117.588 
  426800   -254654.75    91.608467   -254563.14    447.70306    6089.8145    16117.588 
  426900   -254657.01    90.846006   -254566.17    443.97681    5975.9061    16117.588 
  427000   -254658.94    90.473803   -254568.47     442.1578    5979.1257    16117.588 
  427100   -254658.41    90.780845   -254567.63    443.65836    6071.9031    16117.588 
  427200   -254657.72    94.458898   -254563.26    461.63351    6218.1074    16117.588 
  427300   -254655.44    92.349043   -254563.09    451.32236    6078.3175    16117.588 
  427400   -254659.78    92.346969   -254567.44    451.31222    6078.8684    16117.588 
  427500    -254659.7    90.159779   -254569.54    440.62312    5932.8681    16117.588 
  427600   -254660.43    92.128587   -254568.31    450.24496     6062.332    16117.588 
  427700   -254661.22    93.964441   -254567.26    459.21703    6208.4949    16117.588 
  427800   -254661.59    94.322551   -254567.27    460.96716    6210.1313    16117.588 
  427900   -254657.11    89.769085   -254567.34    438.71375    5939.4639    16117.588 
  428000   -254657.71    92.111741    -254565.6    450.16263    6063.4824    16117.588 
  428100   -254655.06     91.05956      -254564    445.02048    5988.6807    16117.588 
  428200   -254659.54    96.263092   -254563.28    470.45085    6335.6493    16117.588 
  428300    -254657.7    92.612846   -254565.09     452.6116    6096.0491    16117.588 
  428400   -254658.23    89.386183   -254568.84    436.84245    5882.0891    16117.588 
  428500   -254656.35    89.714277   -254566.63    438.44589    5949.5669    16117.588 
  428600   -254654.82    90.801247   -254564.02    443.75807    5975.9076    16117.588 
  428700   -254656.82    93.594837   -254563.22    457.41072    6226.6671    16117.588 
  428800   -254656.92     93.07548   -254563.84    454.87255    6200.1973    16117.588 
  428900   -254658.86    93.569403   -254565.29    457.28642    6183.5369    16117.588 
  429000   -254657.36    89.588173   -254567.77    437.82961    5893.2927    16117.588 
  429100    -254661.2    89.214581   -254571.99    436.00381     5932.579    16117.588 
  429200   -254660.93    90.867805   -254570.07    444.08334    5979.6775    16117.588 
  429300   -254658.32    92.043975   -254566.28    449.83144    6054.2073    16117.588 
  429400   -254659.24    94.359528   -254564.88    461.14787    6208.0177    16117.588 
  429500   -254659.14    94.249963   -254564.89    460.61241    6195.8606    16117.588 
  429600   -254658.31    91.270922   -254567.04    446.05343    6004.2376    16117.588 
  429700   -254662.64    92.467008   -254570.18    451.89887    6084.6183    16117.588 
  429800   -254660.41    88.388234   -254572.02    431.96534     5815.718    16117.588 
  429900   -254657.75     90.33336   -254567.41    441.47144    6037.6105    16117.588 
  430000   -254658.42    92.019806    -254566.4    449.71333    6092.4276    16117.588 
Loop time of 71082.8 on 1 procs for 430000 steps with 1584 atoms

Performance: 0.261 ns/day, 91.838 hours/ns, 6.049 timesteps/s
98.7% CPU use with 1 MPI tasks x 1 OpenMP threads

MPI task timing breakdown:
Section |  min time  |  avg time  |  max time  |%varavg| %total
---------------------------------------------------------------
Pair    | 67612      | 67612      | 67612      |   0.0 | 95.12
Kspace  | 223.66     | 223.66     | 223.66     |   0.0 |  0.31
Neigh   | 1040       | 1040       | 1040       |   0.0 |  1.46
Comm    | 11.476     | 11.476     | 11.476     |   0.0 |  0.02
Output  | 2181.4     | 2181.4     | 2181.4     |   0.0 |  3.07
Modify  | 11.92      | 11.92      | 11.92      |   0.0 |  0.02
Other   |            | 1.948      |            |       |  0.00

Nlocal:        1584.00 ave        1584 max        1584 min
Histogram: 1 0 0 0 0 0 0 0 0 0
Nghost:        10152.0 ave       10152 max       10152 min
Histogram: 1 0 0 0 0 0 0 0 0 0
Neighs:        816029.0 ave      816029 max      816029 min
Histogram: 1 0 0 0 0 0 0 0 0 0
FullNghs:  1.12546e+06 ave 1.12546e+06 max 1.12546e+06 min
Histogram: 1 0 0 0 0 0 0 0 0 0

Total # of neighbors = 1125462
Ave neighs/atom = 710.51894
Neighbor list builds = 43000
Dangerous builds not checked
Total wall time: 19:44:48
