LAMMPS (29 Sep 2021 - Update 2)
OMP_NUM_THREADS environment is not set. Defaulting to 1 thread. (src/comm.cpp:98)
  using 1 OpenMP thread(s) per MPI task
Reading data file ...
  orthogonal box = (0.0000000 0.0000000 0.0000000) to (25.260000 25.260000 25.260000)
  1 by 1 by 1 MPI processor grid
WARNING: Atom style in data file differs from currently defined atom style (src/read_data.cpp:516)
  reading atoms ...
  1584 atoms
  read_data CPU = 0.002 seconds
NequIP Coeff: type 1 is element O
NequIP Coeff: type 2 is element H
NequIP Coeff: type 3 is element Li
NequIP Coeff: type 4 is element Cl
Scanning dump file ...
Reading snapshot from dump file ...
  orthogonal box = (0.0000000 0.0000000 0.0000000) to (25.260000 25.260000 25.260000)
  1584 atoms before read
  1584 atoms in snapshot
  0 atoms purged
  1584 atoms replaced
  0 atoms trimmed
  0 atoms added
  1584 atoms after read
PPPM initialization ...
  using 12-bit tables for long-range coulomb (src/kspace.cpp:340)
  G vector (1/distance) = 0.22568151
  grid = 9 9 9
  stencil order = 5
  estimated absolute RMS force accuracy = 8.1621662e-06
  estimated relative force accuracy = 5.6683107e-07
  using double precision FFTW3
  3d grid and FFT values/proc = 2744 729
Neighbor list info ...
  update every 10 steps, delay 0 steps, check no
  max neighbors/atom: 2000, page size: 100000
  master list distance cutoff = 12
  ghost atom cutoff = 12
  binsize = 6, bins = 5 5 5
  3 neighbor lists, perpetual/occasional/extra = 3 0 0
  (1) pair nequip, perpetual
      attributes: full, newton off
      pair build: full/bin/atomonly
      stencil: full/bin/3d
      bin: standard
  (2) pair coul/long, perpetual, half/full from (1)
      attributes: half, newton off
      pair build: halffull/newtoff
      stencil: none
      bin: none
  (3) pair gauss/cut, perpetual, copy from (2)
      attributes: half, newton off
      pair build: copy
      stencil: none
      bin: none
Setting up Verlet run ...
  Unit style    : metal
  Current step  : 0
  Time step     : 0.0005
Per MPI rank memory allocation (min/avg/max) = 16.42 | 16.42 | 16.42 Mbytes
Step PotEng KinEng TotEng Temp Press Volume 
       0   -254646.98    76.732054   -254570.24          375    5065.4962    16117.588 
     100   -254661.28    85.080803    -254576.2    415.80148    5593.3359    16117.588 
     200   -254667.07    82.810517   -254584.26    404.70628    5444.8958    16117.588 
     300    -254668.5    76.939717   -254591.56    376.01488    5054.3812    16117.588 
     400   -254673.98    77.446581   -254596.53    378.49199    5089.8123    16117.588 
     500   -254676.99    76.955775   -254600.03    376.09336    5055.1146    16117.588 
     600   -254678.27    76.223006   -254602.04    372.51222    5006.9393    16117.588 
     700   -254675.69    75.212915   -254600.48    367.57576    4939.4661    16117.588 
     800   -254677.67    79.819415   -254597.86    390.08835    5332.8464    16117.588 
     900   -254677.18    78.644978   -254598.54    384.34872    5193.3134    16117.588 
    1000   -254677.29    75.164347   -254602.12     367.3384    4985.8867    16117.588 
    1100   -254680.07    76.428134   -254603.64    373.51471    5020.5381    16117.588 
    1200   -254681.03    76.535742   -254604.49     374.0406    5028.8816    16117.588 
    1300   -254681.09      77.0947      -254604     376.7723    5155.4096    16117.588 
    1400   -254678.96    76.469155   -254602.49    373.71518    5026.3244    16117.588 
    1500   -254678.94    77.526675   -254601.41    378.88342    5096.5799    16117.588 
    1600   -254678.21     76.22073   -254601.99    372.50109    5152.3275    16117.588 
    1700   -254679.28    73.803718   -254605.48    360.68883    4850.5405    16117.588 
    1800   -254680.79    75.441472   -254605.35    368.69275    4959.2733    16117.588 
    1900    -254680.6    78.053991   -254602.55    381.46049    5169.7015    16117.588 
    2000   -254679.59    76.748159   -254602.84    375.07871    5080.3796    16117.588 
    2100   -254679.15    75.595602   -254603.55    369.44601    5122.3476    16117.588 
    2200   -254681.56    78.730557   -254602.83    384.76696    5248.2595    16117.588 
    2300   -254676.31    76.049161   -254600.26    371.66261    4997.0657    16117.588 
    2400   -254677.61    80.536902   -254597.08    393.59481    5321.7813    16117.588 
    2500   -254675.73    77.206424   -254598.52    377.31831    5074.7006    16117.588 
    2600   -254678.06    76.457113    -254601.6    373.65633     5026.188    16117.588 
    2700   -254677.93    75.770083   -254602.16    370.29872    4980.4875    16117.588 
    2800   -254680.84    77.888678   -254602.95    380.65258    5149.4078    16117.588 
    2900    -254681.3     75.79778    -254605.5    370.43408     5010.166    16117.588 
    3000   -254680.81    74.752899   -254606.06     365.3276    4914.0359    16117.588 
    3100    -254680.2    76.635269   -254603.56      374.527    5039.0523    16117.588 
    3200   -254679.49    78.679358   -254600.81    384.51674    5274.0822    16117.588 
    3300   -254678.21    75.555375   -254602.66    369.24941    4994.1044    16117.588 
    3400   -254682.14    77.055822   -254605.09     376.5823    5068.0139    16117.588 
    3500   -254682.23    76.117877   -254606.11    371.99844    5036.7907    16117.588 
    3600   -254682.37    76.413504   -254605.96     373.4432    5025.1629    16117.588 
    3700   -254682.08    78.720743   -254603.35      384.719    5179.1022    16117.588 
    3800   -254678.52    80.188619   -254598.33    391.89271    5274.7885    16117.588 
    3900   -254677.22    77.101587   -254600.12    376.80596    5069.2039    16117.588 
    4000   -254680.26    77.200898   -254603.06    377.29131    5077.3976    16117.588 
    4100   -254681.47    77.274765   -254604.19    377.65231    5082.8188    16117.588 
    4200   -254681.79    76.407278   -254605.38    373.41278    5025.2376    16117.588 
    4300   -254680.82    75.281278   -254605.54    367.90986    5039.0667    16117.588 
    4400   -254683.66    76.310095   -254607.35    372.93783    5052.7166    16117.588 
    4500   -254682.59    75.621237   -254606.97    369.57129    5011.3996    16117.588 
    4600   -254680.77    76.442878   -254604.33    373.58676    5066.2235    16117.588 
    4700   -254676.82    75.030531   -254601.79    366.68443    5000.4212    16117.588 
    4800   -254678.77    77.995386   -254600.77    381.17408     5165.243    16117.588 
    4900   -254679.82    77.381849   -254602.44    378.17564    5089.0058    16117.588 
    5000    -254681.2    73.344947   -254607.86    358.44675    4844.9036    16117.588 
    5100   -254682.35    74.445049   -254607.91     363.8231    4916.3692    16117.588 
    5200   -254680.58    76.021514   -254604.56    371.52749    5103.7629    16117.588 
    5300   -254679.85    78.003165   -254601.84    381.21209    5128.3479    16117.588 
    5400   -254678.44     77.86156   -254600.58    380.52005     5145.683    16117.588 
    5500   -254678.08    77.740194   -254600.34    379.92692    5167.8996    16117.588 
    5600   -254681.37    78.360484   -254603.01    382.95836     5151.208    16117.588 
    5700   -254680.46    74.965761   -254605.49    366.36789    4926.8518    16117.588 
    5800   -254679.08    74.111543   -254604.97    362.19321    4870.4294    16117.588 
    5900   -254677.08    75.804567   -254601.28    370.46725    5040.1728    16117.588 
    6000   -254677.52    77.319486    -254600.2    377.87086    5142.5844    16117.588 
    6100   -254676.12    74.862438   -254601.26    365.86294    4921.0586    16117.588 
    6200   -254677.71    75.183891   -254602.53    367.43392    5052.2774    16117.588 
    6300   -254677.74    73.178967   -254604.56    357.63558    4809.0462    16117.588 
    6400   -254681.57    75.862704   -254605.71    370.75137    4986.8104    16117.588 
    6500   -254677.87     74.71736   -254603.15    365.15392    4911.2452    16117.588 
    6600   -254679.76    78.256301    -254601.5     382.4492    5145.5328    16117.588 
    6700   -254679.55     77.55023      -254602    378.99854    5099.2848    16117.588 
    6800   -254679.58    75.081215    -254604.5    366.93213    4959.2096    16117.588 
    6900   -254682.14    76.757237   -254605.38    375.12307    5043.7621    16117.588 
    7000   -254683.07     75.22669   -254607.85    367.64308    4988.7793    16117.588 
    7100   -254683.57    75.363295   -254608.21    368.31069    4952.0501    16117.588 
    7200    -254680.6    76.422951   -254604.18    373.48938    5023.7055    16117.588 
    7300   -254677.79    75.585056   -254602.21    369.39446    4967.7634    16117.588 
    7400   -254674.89    74.631958   -254600.25    364.73655    4904.0985    16117.588 
    7500   -254676.59     78.73983   -254597.85    384.81227    5256.2813    16117.588 
    7600   -254675.92    77.242786   -254598.68    377.49602    5110.9032    16117.588 
    7700   -254678.84    77.926587   -254600.91    380.83785     5255.732    16117.588 
    7800   -254679.41    77.671708   -254601.74    379.59222    5106.0701    16117.588 
    7900   -254677.94    76.014047   -254601.92      371.491    4996.6184    16117.588 
    8000   -254679.13    74.593539   -254604.54    364.54879    4902.4155    16117.588 
    8100   -254681.77    73.978991    -254607.8    361.54541    4912.2633    16117.588 
    8200   -254682.31    74.180459   -254608.13    362.53001    4875.6936    16117.588 
    8300   -254678.23    75.216282   -254603.01    367.59222    4943.7706    16117.588 
    8400   -254677.17    76.462081   -254600.71    373.68061    5075.6188    16117.588 
    8500   -254679.72    79.703323   -254600.01      389.521    5241.1561    16117.588 
    8600   -254679.86    77.382736   -254602.48    378.17997    5158.4434    16117.588 
    8700   -254678.53    74.377126   -254604.15    363.49115    4888.9765    16117.588 
    8800   -254681.05    75.979324   -254605.07    371.32131    4994.8646    16117.588 
    8900   -254680.41    76.406499   -254604.01    373.40897    5023.8639    16117.588 
    9000   -254678.83    77.609017   -254601.22    379.28584    5103.3111    16117.588 
    9100   -254678.52    78.824917    -254599.7    385.22811     5183.883    16117.588 
    9200   -254679.02    78.188714   -254600.83     382.1189    5141.3437    16117.588 
    9300   -254683.53    78.439202   -254605.09    383.34307    5195.5115    16117.588 
    9400   -254680.45    74.895406   -254605.55    366.02405    4922.8455    16117.588 
    9500   -254681.76    78.229306   -254603.53    382.31727    5144.1796    16117.588 
    9600   -254680.06    77.485856   -254602.58    378.68394    5093.8546    16117.588 
    9700    -254681.8    76.908676    -254604.9    375.86318    5057.7431    16117.588 
    9800   -254681.86    73.761839   -254608.09    360.48416    4848.4997    16117.588 
    9900   -254682.85    75.849372      -254607    370.68621    4986.7206    16117.588 
   10000   -254681.59    77.516901   -254604.07    378.83566    5097.1836    16117.588 
   10100   -254680.44    77.573612   -254602.86    379.11281     5146.176    16117.588 
   10200   -254680.26    77.925368   -254602.33    380.83189    5169.6834    16117.588 
   10300    -254680.1    78.173984   -254601.92    382.04691    5167.7348    16117.588 
   10400   -254679.56     77.02286   -254602.53    376.42121    5090.0441    16117.588 
   10500   -254677.16    73.952656    -254603.2    361.41671    4892.8112    16117.588 
   10600   -254677.87    74.210232   -254603.66    362.67551    4877.4954    16117.588 
   10700   -254678.04    77.276441   -254600.76     377.6605    5080.0158    16117.588 
   10800   -254675.82    77.556145   -254598.27    379.02745    5173.5223    16117.588 
   10900    -254678.6    78.713657   -254599.89    384.68437    5176.4234    16117.588 
   11000   -254679.02    77.364157   -254601.65    378.08918    5087.4033    16117.588 
   11100   -254678.66    76.195898   -254602.46    372.37974    5073.5944    16117.588 
   11200   -254678.17     75.55197   -254602.62    369.23277    4966.9987    16117.588 
   11300   -254679.96    77.993358   -254601.97    381.16417    5128.7089    16117.588 
   11400   -254678.54    75.086652   -254603.46     366.9587    4935.9788    16117.588 
   11500   -254682.41    76.945263   -254605.47    376.04199    5103.5406    16117.588 
   11600   -254683.38    75.311403   -254608.06    368.05708    4950.9409    16117.588 
   11700   -254684.46     75.46431   -254608.99    368.80437    4994.9763    16117.588 
   11800   -254683.11     77.04309   -254606.07    376.52008      5066.12    16117.588 
   11900   -254679.43    76.550487   -254602.88    374.11266     5031.178    16117.588 
   12000   -254681.25    78.884401   -254602.37    385.51882    5186.6641    16117.588 
   12100   -254681.66    77.265491    -254604.4    377.60698    5080.6976    16117.588 
   12200   -254680.89    75.468338   -254605.42    368.82405    4960.5525    16117.588 
   12300   -254682.71    77.038516   -254605.67    376.49772    5063.4913    16117.588 
   12400   -254678.94    74.696992   -254604.24    365.05438     4908.365    16117.588 
   12500   -254679.27    77.995675   -254601.27    381.17549     5186.813    16117.588 
   12600   -254678.45    77.854199    -254600.6    380.48408    5118.8985    16117.588 
   12700   -254679.72    76.873189   -254602.85    375.68975    5052.2998    16117.588 
   12800   -254682.58    76.692313   -254605.89    374.80578    5066.2008    16117.588 
   12900   -254681.65    75.548832    -254606.1    369.21743    4965.9972    16117.588 
   13000   -254681.14    76.478087   -254604.66    373.75883     5114.733    16117.588 
   13100    -254678.3    75.393383   -254602.91    368.45773    5035.1866    16117.588 
   13200   -254677.96    76.561676   -254601.39    374.16734     5033.547    16117.588 
   13300   -254676.96    75.965764      -254601    371.25504    4995.4023    16117.588 
   13400   -254677.84    78.357509   -254599.48    382.94382    5192.9565    16117.588 
   13500   -254679.37    77.973149    -254601.4     381.0654    5161.7293    16117.588 
   13600   -254681.81    77.237267   -254604.57    377.46905    5077.6501    16117.588 
   13700   -254680.97    74.915028   -254606.06    366.11995    4923.8143    16117.588 
   13800   -254681.82    75.422109    -254606.4    368.59812    4956.1851    16117.588 
   13900    -254681.6    76.926115   -254604.68     375.9484    5056.9706    16117.588 
   14000   -254679.08    77.889055   -254601.19    380.65442    5229.4842    16117.588 
   14100   -254678.78    78.500361   -254600.28    383.64196    5335.2101    16117.588 
   14200   -254678.04    75.566246   -254602.47    369.30254    4966.1879    16117.588 
   14300   -254682.15    76.777983   -254605.37    375.22446     5046.821    16117.588 
   14400   -254680.47    74.181868   -254606.29     362.5369     4875.623    16117.588 
   14500   -254681.68    76.280125    -254605.4    372.79136    5014.9048    16117.588 
   14600   -254681.23    77.607582   -254603.62    379.27883    5177.4911    16117.588 
   14700   -254682.11    79.340504   -254602.77    387.74785    5217.9284    16117.588 
   14800   -254681.65    77.128684   -254604.53    376.93839    5072.1315    16117.588 
   14900   -254682.69    76.715097   -254605.97    374.91713    5043.1871    16117.588 
   15000   -254678.62    73.232935   -254605.39    357.89933    4812.1573    16117.588 
   15100   -254678.32      76.4053   -254601.91    373.40311    5053.0526    16117.588 
   15200   -254676.93    77.853297   -254599.07    380.47967    5118.7298    16117.588 
   15300   -254677.28    77.548921   -254599.73    378.99214    5100.0541    16117.588 
   15400   -254679.72    76.820504    -254602.9    375.43227    5050.7332    16117.588 
   15500   -254680.57    76.441491   -254604.13    373.57998    5055.7494    16117.588 
   15600   -254680.78    76.501299   -254604.28    373.87227    5029.4593    16117.588 
   15700   -254680.68    80.603751   -254600.08    393.92151    5301.4323    16117.588 
   15800   -254677.65    79.072298   -254598.57    386.43709    5228.7199    16117.588 
   15900   -254678.77    78.111691   -254600.66    381.74248    5135.3241    16117.588 
   16000   -254678.53    76.509583   -254602.02    373.91276    5027.9982    16117.588 
   16100   -254680.49     77.55358   -254602.94    379.01491    5135.2168    16117.588 
   16200   -254678.76    76.466199    -254602.3    373.70073    5026.7631    16117.588 
   16300   -254678.03    78.963016   -254599.07    385.90302    5191.1771    16117.588 
   16400   -254678.25    78.853198    -254599.4    385.36632     5250.149    16117.588 
   16500   -254678.37    75.353932   -254603.01    368.26493    4987.5481    16117.588 
   16600    -254680.2    75.837703   -254604.36    370.62919    4983.7391    16117.588 
   16700   -254679.57    74.419449   -254605.15    363.69799    4890.6284    16117.588 
   16800   -254680.85    76.464618   -254604.38    373.69301     5027.172    16117.588 
   16900   -254680.36    79.138624   -254601.22    386.76124    5203.8035    16117.588 
   17000   -254679.15    77.750297    -254601.4     379.9763    5260.8616    16117.588 
   17100   -254679.43    73.546028   -254605.89    359.42946    4901.0279    16117.588 
   17200   -254679.73     73.07947   -254606.65    357.14933    4849.4127    16117.588 
   17300   -254682.13    77.508886   -254604.62    378.79648    5096.8334    16117.588 
   17400   -254682.71    78.152537   -254604.56     381.9421    5189.0368    16117.588 
   17500   -254682.82    76.269552   -254606.55    372.73969    5138.1755    16117.588 
   17600   -254680.84    71.774329   -254609.06    350.77092    4716.0107    16117.588 
   17700      -254684     76.56159   -254607.44    374.16692    5034.0587    16117.588 
   17800   -254679.88    76.220121   -254603.66    372.49812    5048.1736    16117.588 
   17900   -254679.97    76.479177   -254603.49    373.76416    5064.1309    16117.588 
   18000   -254681.01    76.385271   -254604.63    373.30523    5023.9896    16117.588 
   18100   -254682.26    74.661095    -254607.6    364.87894    4908.1429    16117.588 
   18200   -254682.35    75.144662   -254607.21     367.2422    5060.9843    16117.588 
   18300   -254679.94    77.351148   -254602.59     378.0256    5087.5213    16117.588 
   18400   -254680.94    79.067742   -254601.88    386.41483    5201.0882    16117.588 
   18500   -254680.02    76.984611   -254603.03    376.23428    5113.4497    16117.588 
   18600   -254681.12    78.170739   -254602.95    382.03105    5140.0441    16117.588 
   18700   -254679.15    77.536307   -254601.61     378.9305    5150.5483    16117.588 
   18800   -254680.87    81.137968   -254599.73     396.5323    5336.1671    16117.588 
   18900   -254680.96    77.653062   -254603.31    379.50109    5165.6036    16117.588 
   19000   -254681.61    76.933096   -254604.68    375.98252    5090.7173    16117.588 
   19100   -254683.89    77.857564   -254606.03    380.50052    5179.3595    16117.588 
   19200   -254683.76    76.491975   -254607.27     373.8267    5028.8844    16117.588 
   19300   -254681.34    76.618167   -254604.72    374.44342    5036.5928    16117.588 
   19400    -254681.3    80.003723    -254601.3    390.98909    5260.6026    16117.588 
   19500   -254680.35    79.778351   -254600.57    389.88767    5245.2956    16117.588 
   19600   -254680.68    78.304638   -254602.37    382.68543    5147.8463    16117.588 
   19700   -254680.55     75.35709   -254605.19    368.28037    4951.9807    16117.588 
   19800   -254681.37    76.763657   -254604.61    375.15445    5123.5091    16117.588 
   19900   -254681.16    76.607524   -254604.55    374.39141    5076.3042    16117.588 
   20000   -254679.98     75.47319   -254604.51    368.84776    4959.0468    16117.588 
   20100   -254680.56    76.665359   -254603.89    374.67406    5038.7696    16117.588 
   20200   -254681.02    76.977917   -254604.04    376.20157    5059.8506    16117.588 
   20300   -254682.71     76.91749   -254605.79    375.90625    5124.4214    16117.588 
   20400   -254681.21    74.827292   -254606.38    365.69117     4917.643    16117.588 
   20500   -254681.16     75.77558   -254605.38    370.32558    4978.7389    16117.588 
   20600    -254679.9     77.51264   -254602.38    378.81483    5123.9756    16117.588 
   20700   -254681.19    79.274948   -254601.92    387.42747    5210.5742    16117.588 
   20800   -254682.46    76.591878   -254605.86    374.31494      5033.26    16117.588 
   20900   -254682.96    75.923732   -254607.03    371.04962     4989.829    16117.588 
   21000   -254677.19    71.869527   -254605.32    351.23617    4779.1446    16117.588 
   21100   -254678.35    75.727061   -254602.63    370.08847    5064.5242    16117.588 
   21200   -254677.44     75.76134   -254601.68    370.25599    4975.3832    16117.588 
   21300   -254677.79    75.575819   -254602.21    369.34932    4966.2703    16117.588 
   21400   -254679.87    74.922843   -254604.95    366.15814    4922.6214    16117.588 
   21500   -254680.23    72.580977   -254607.64    354.71313    4797.0752    16117.588 
   21600   -254679.65    74.255301    -254605.4    362.89577    4881.9538    16117.588 
   21700   -254679.41    76.021832   -254603.39    371.52905     4998.494    16117.588 
   21800   -254678.38    76.560051   -254601.82     374.1594    5115.3897    16117.588 
   21900   -254679.45    77.609383   -254601.84    379.28763    5131.7306    16117.588 
   22000   -254680.14    75.921335   -254604.22    371.03791    4992.8735    16117.588 
   22100    -254679.4    74.374856   -254605.02    363.48006    4931.3244    16117.588 
   22200   -254680.02    78.160672   -254601.85    381.98185    5140.5022    16117.588 
   22300   -254677.96    78.181972   -254599.77    382.08595    5141.8275    16117.588 
   22400   -254676.84    75.808064   -254601.03    370.48434    5021.3574    16117.588 
   22500   -254679.05    77.002717   -254602.05    376.32277    5063.8264    16117.588 
   22600   -254678.86    76.436079   -254602.43    373.55353    5026.1911    16117.588 
   22700   -254679.38    76.506095   -254602.87    373.89571    5114.5369    16117.588 
   22800   -254678.88    77.414949   -254601.47     378.3374    5088.6204    16117.588 
   22900   -254675.67    75.605985   -254600.07    369.49675    5006.7315    16117.588 
   23000   -254675.52    77.288421   -254598.23    377.71904    5080.4072    16117.588 
   23100   -254678.57    78.619675   -254599.95    384.22506    5255.1077    16117.588 
   23200   -254680.03    75.423972    -254604.6    368.60723    4993.2635    16117.588 
   23300   -254678.36    74.146445   -254604.21    362.36378    4874.2153    16117.588 
   23400   -254679.99    78.454126   -254601.54      383.416    5188.8766    16117.588 
   23500   -254673.17    72.553983   -254600.61     354.5812    4767.1604    16117.588 
   23600   -254676.26    76.699867   -254599.56     374.8427    5065.9262    16117.588 
   23700   -254676.21    74.937511   -254601.28    366.22983    4924.2816    16117.588 
   23800   -254680.32    75.629339   -254604.69    369.61088    5022.2155    16117.588 
   23900   -254680.32    75.122325    -254605.2    367.13303    4976.0295    16117.588 
   24000   -254681.98     76.74934   -254605.23    375.08448    5099.2969    16117.588 
   24100   -254678.89    76.795799   -254602.09    375.31153    5074.7695    16117.588 
   24200   -254678.38    78.527302   -254599.85    383.77363    5330.3684    16117.588 
   24300   -254680.36    77.994595   -254602.36    381.17021    5154.8993    16117.588 
   24400   -254682.26    77.118199   -254605.14    376.88715    5101.4341    16117.588 
   24500   -254679.45    73.994289   -254605.46    361.62017     4865.064    16117.588 
   24600   -254681.35    78.144073   -254603.21    381.90073    5139.1408    16117.588 
   24700   -254679.51    77.755324   -254601.75    380.00086    5206.9676    16117.588 
   24800   -254680.93    78.349685   -254602.58    382.90559    5153.9825    16117.588 
   24900    -254682.1    76.046891   -254606.05    371.65152    5024.9987    16117.588 
   25000    -254680.5    75.010371   -254605.49     366.5859    5042.5975    16117.588 
   25100   -254679.43    77.315312   -254602.11    377.85046    5084.9786    16117.588 
   25200   -254680.21    78.487861   -254601.72    383.58087    5162.6716    16117.588 
   25300      -254681    77.875312   -254603.13    380.58726    5167.5822    16117.588 
   25400   -254679.29    75.649028   -254603.64    369.70711    4999.1373    16117.588 
   25500   -254682.85    78.761215   -254604.09    384.91679    5180.5755    16117.588 
   25600   -254683.27     76.27553      -254607    372.76891    5015.5993    16117.588 
   25700   -254684.06    75.522065   -254608.54    369.08662     4964.729    16117.588 
   25800   -254681.21    76.162035   -254605.04    372.21424    5031.4187    16117.588 
   25900   -254680.01    77.044909   -254602.96    376.52897    5135.9174    16117.588 
   26000   -254681.22    77.853069   -254603.37    380.47856    5117.6947    16117.588 
   26100    -254683.3    77.927151   -254605.37    380.84061    5150.7738    16117.588 
   26200   -254685.11     76.28367   -254608.83    372.80869    5014.5073    16117.588 
   26300    -254683.9    73.473001   -254610.43    359.07256    4829.0191    16117.588 
   26400   -254684.05    79.214727   -254604.84    387.13316      5208.98    16117.588 
   26500    -254681.8    78.059358   -254603.74    381.48672    5131.6351    16117.588 
   26600   -254681.12    77.189684   -254603.93     377.2365    5130.9513    16117.588 
   26700   -254679.31    74.591708   -254604.72    364.53984    4933.5996    16117.588 
   26800    -254682.6     76.76982   -254605.83    375.18457    5143.8671    16117.588 
   26900   -254681.22    75.171913   -254606.05    367.37538     4941.195    16117.588 
   27000   -254680.65    77.589169   -254603.06    379.18884    5100.5827    16117.588 
   27100   -254678.45    77.514311   -254600.94      378.823    5096.2279    16117.588 
   27200   -254677.99    76.834057   -254601.16     375.4985    5050.6615    16117.588 
   27300   -254678.92    75.495019   -254603.43    368.95444    4984.8656    16117.588 
   27400   -254680.73    73.759374   -254606.97    360.47211    4848.4027    16117.588 
   27500   -254684.36    78.817621   -254605.55    385.19245    5213.2443    16117.588 
   27600   -254681.09    77.132448   -254603.96    376.95678     5098.409    16117.588 
   27700   -254679.21    76.453464   -254602.75    373.63849    5026.2983    16117.588 
   27800   -254677.94    76.869868   -254601.07    375.67352    5093.6358    16117.588 
   27900   -254677.58    80.746706   -254596.84    394.62015    5308.7787    16117.588 
   28000   -254679.48    80.285052    -254599.2    392.36399    5279.9703    16117.588 
   28100   -254677.44    76.408652   -254601.03    373.41949    5068.5324    16117.588 
   28200    -254678.7    76.757702   -254601.95    375.12535    5046.1909    16117.588 
   28300   -254681.24    77.379977   -254603.86    378.16649    5147.8864    16117.588 
   28400    -254682.1    75.278475   -254606.82    367.89616    4972.2253    16117.588 
   28500   -254683.38    75.131889   -254608.25    367.17978    4965.1401    16117.588 
   28600   -254682.25    76.363684   -254605.88    373.19973    5045.4014    16117.588 
   28700   -254681.55    78.834608   -254602.72    385.27547     5183.396    16117.588 
   28800   -254679.05    75.174819   -254603.87    367.38958    4924.9944    16117.588 
   28900   -254681.64    75.245286   -254606.39    367.73396    5059.6125    16117.588 
   29000   -254682.85    77.044036    -254605.8     376.5247    5096.4702    16117.588 
   29100   -254681.24    76.816132   -254604.43     375.4109    5050.5622    16117.588 
   29200   -254680.34    80.086196   -254600.25    391.39215    5267.1652    16117.588 
   29300    -254677.4    78.125691   -254599.28     381.8109    5137.6533    16117.588 
   29400   -254679.23    77.340564   -254601.89    377.97387    5138.8802    16117.588 
   29500   -254681.31    78.005587    -254603.3    381.22393     5157.715    16117.588 
   29600   -254681.34    77.880758   -254603.46    380.61387    5146.7934    16117.588 
   29700   -254680.27    76.818978   -254603.45    375.42481    5074.6642    16117.588 
   29800   -254679.39     78.03053   -254601.36    381.34583    5131.6087    16117.588 
   29900   -254680.66    79.370786   -254601.29    387.89584    5219.3451    16117.588 
   30000   -254682.19    76.493732   -254605.69    373.83529    5030.4534    16117.588 
   30100   -254683.23    76.369432   -254606.86    373.22782    5020.4062    16117.588 
   30200    -254682.1    76.719855   -254605.38    374.94038    5044.1004    16117.588 
   30300   -254682.14    78.988286   -254603.15    386.02651    5194.5751    16117.588 
   30400   -254678.15    77.581899   -254600.56    379.15331    5100.8431    16117.588 
   30500   -254677.22    79.225504   -254597.99    387.18583    5209.3088    16117.588 
   30600   -254678.34     76.16807   -254602.17    372.24373    5032.3593    16117.588 
   30700   -254680.72     76.50936   -254604.21    373.91166    5030.1029    16117.588 
   30800   -254680.52    76.325167    -254604.2    373.01149    5016.7999    16117.588 
   30900   -254678.59     77.34609   -254601.25    378.00088    5114.5361    16117.588 
   31000   -254677.09     77.98666    -254599.1    381.13143    5127.6946    16117.588 
   31100   -254677.07    77.345333   -254599.72    377.99718    5086.6682    16117.588 
   31200   -254677.72    77.169216   -254600.55    377.13647    5074.6998    16117.588 
   31300   -254675.64    75.055683   -254600.59    366.80735    4932.8544    16117.588 
   31400   -254677.91    77.387713   -254600.52     378.2043    5170.3668    16117.588 
   31500   -254677.66    76.842558   -254600.81    375.54005    5051.7126    16117.588 
   31600   -254680.23    75.615948   -254604.62    369.54544    4970.5872    16117.588 
   31700   -254681.59    74.458718   -254607.13     363.8899    4894.0931    16117.588 
   31800   -254682.36    77.079997   -254605.28    376.70045    5067.3316    16117.588 
   31900   -254680.74    77.690898   -254603.05      379.686    5146.9009    16117.588 
   32000   -254679.36    76.796218   -254602.56    375.31358    5049.6889    16117.588 
   32100   -254679.81    75.908735    -254603.9    370.97633    4990.7118    16117.588 
   32200   -254680.34    73.832338   -254606.51     360.8287     4854.164    16117.588 
   32300   -254677.08    71.786269   -254605.29    350.82928    4758.1163    16117.588 
   32400   -254680.46    78.737958   -254601.72    384.80313    5392.1909    16117.588 
   32500   -254677.84    76.272603   -254601.57     372.7546    5015.0407    16117.588 
   32600   -254678.87    76.762775   -254602.11    375.15014    5086.8939    16117.588 
   32700   -254680.22    77.065957   -254603.16    376.63183    5067.8879    16117.588 
   32800   -254680.35     74.21918   -254606.13    362.71925    4963.4732    16117.588 
   32900   -254680.37    75.555155   -254604.82    369.24834    5002.4038    16117.588 
   33000   -254679.92     77.67438   -254602.24    379.60528    5101.6341    16117.588 
   33100   -254677.59    75.900488   -254601.69    370.93603    4988.4401    16117.588 
   33200   -254678.72    77.599738   -254601.12    379.24049    5101.5395    16117.588 
   33300   -254679.32    77.682862   -254601.63    379.64673    5143.5622    16117.588 
   33400   -254679.14    76.109029   -254603.03    371.95519    5003.7951    16117.588 
   33500   -254678.85     75.62795   -254603.22    369.60409    4971.5834    16117.588 
   33600   -254678.28     76.36052   -254601.92    373.18427    5048.8028    16117.588 
   33700   -254678.01    77.594816   -254600.42    379.21644    5101.7317    16117.588 
   33800   -254676.35    76.268151   -254600.08    372.73284     5014.634    16117.588 
   33900   -254679.74    76.827918   -254602.91     375.4685    5052.7621    16117.588 
   34000   -254679.65    74.195658   -254605.45    362.60429    4878.5685    16117.588 
   34100   -254681.63    77.182386   -254604.45    377.20084    5140.8429    16117.588 
   34200   -254679.23    76.965952   -254602.27    376.14309    5116.9511    16117.588 
   34300   -254678.84    78.482408   -254600.35    383.55422    5162.0309    16117.588 
   34400   -254676.73    80.576569   -254596.15    393.78867    5300.7076    16117.588 
   34500   -254678.39    80.061683   -254598.33    391.27235     5329.558    16117.588 
   34600   -254679.71    77.853156   -254601.85    380.47898    5119.6036    16117.588 
   34700   -254679.99    76.767074   -254603.22    375.17115    5047.7129    16117.588 
   34800   -254680.58    76.846864   -254603.73    375.56109     5087.272    16117.588 
   34900   -254683.95    78.450769    -254605.5     383.3996     5184.115    16117.588 
   35000   -254683.99    75.235039   -254608.76    367.68389    4980.4876    16117.588 
   35100   -254681.34    73.995102   -254607.34    361.62414    4863.9427    16117.588 
   35200    -254681.9     76.73936   -254605.16    375.03571    5044.9981    16117.588 
   35300   -254680.19    75.556202   -254604.63    369.25345    4964.0948    16117.588 
   35400   -254682.94     78.54239   -254604.39    383.84736    5164.8634    16117.588 
   35500   -254679.59    76.263723   -254603.32     372.7112    5013.1833    16117.588 
   35600   -254677.91    75.718121   -254602.19    370.04477    5030.9198    16117.588 
   35700   -254678.92    79.028567   -254599.89    386.22337    5197.2123    16117.588 
   35800   -254678.31    78.319124   -254599.99    382.75623    5207.9637    16117.588 
   35900   -254682.39    78.252135   -254604.14    382.42885    5146.9282    16117.588 
   36000   -254680.28    75.411089   -254604.87    368.54427    4958.5018    16117.588 
   36100   -254680.08     76.88537    -254603.2    375.74928    5056.0393    16117.588 
   36200   -254681.68    79.792386   -254601.88    389.95626    5291.8745    16117.588 
   36300   -254679.16    76.218109   -254602.94    372.48828    5010.3626    16117.588 
   36400   -254683.63     76.21806   -254607.41    372.48804    5011.6885    16117.588 
   36500   -254682.28    75.034135   -254607.25    366.70204     4932.493    16117.588 
   36600   -254681.49    77.499739   -254603.99    378.75178    5120.9068    16117.588 
   36700   -254679.55    76.552177   -254602.99    374.12092    5033.2491    16117.588 
   36800   -254680.15    76.933995   -254603.21    375.98692    5059.2071    16117.588 
   36900   -254678.58    76.224715   -254602.35    372.52057    5042.9162    16117.588 
   37000   -254679.98    80.012296   -254599.97    391.03099    5288.5175    16117.588 
   37100   -254676.94    76.891271   -254600.05    375.77812    5056.3855    16117.588 
   37200    -254678.5    75.540085   -254602.96    369.17469    5005.8592    16117.588 
   37300   -254681.58    76.559169   -254605.02    374.15509    5088.7084    16117.588 
   37400   -254682.51    77.198492   -254605.31    377.27955    5105.3271    16117.588 
   37500    -254681.5    75.953319   -254605.55    371.19422     5022.116    16117.588 
   37600    -254679.5    76.480067   -254603.02    373.76851     5027.805    16117.588 
   37700   -254677.85     78.91181   -254598.93    385.65277    5189.7934    16117.588 
   37800   -254678.27    77.696045   -254600.58    379.71116    5168.7757    16117.588 
   37900   -254678.73    75.991948   -254602.74      371.383    5020.1324    16117.588 
   38000   -254680.94    76.410905   -254604.53     373.4305    5023.6026    16117.588 
   38100   -254681.69    77.565771   -254604.13    379.07449    5142.8278    16117.588 
   38200   -254678.88    79.097358   -254599.78    386.55956    5202.1013    16117.588 
   38300   -254677.99    78.265483   -254599.72    382.49408     5211.746    16117.588 
   38400   -254678.89    76.129103   -254602.76     372.0533    5004.7111    16117.588 
   38500      -254681    77.492702    -254603.5    378.71739    5130.8828    16117.588 
   38600   -254679.12    76.135798   -254602.99    372.08602    5005.6814    16117.588 
   38700    -254677.3    75.239125   -254602.06    367.70385    5023.8236    16117.588 
   38800   -254679.04    78.708974   -254600.33    384.66148    5176.9242    16117.588 
   38900   -254681.64    77.732968   -254603.91    379.89161    5111.6399    16117.588 
   39000   -254685.16    78.232068   -254606.93    382.33078    5144.5361    16117.588 
   39100   -254684.65    76.832132   -254607.81     375.4891    5147.7482    16117.588 
   39200   -254681.35    74.661146   -254606.69    364.87919    4904.6766    16117.588 
   39300   -254680.93    76.953413   -254603.98    376.08182    5060.8033    16117.588 
   39400    -254679.8    77.364614   -254602.43    378.09141     5136.629    16117.588 
   39500   -254679.26    77.282336   -254601.98     377.6893    5082.0377    16117.588 
   39600   -254680.63    77.091072   -254603.54    376.75457    5068.5523    16117.588 
   39700    -254682.6    76.592642   -254606.01    374.31868    5035.4576    16117.588 
   39800   -254681.36    74.791618   -254606.57    365.51683    4917.4655    16117.588 
   39900   -254681.32    76.044089   -254605.28    371.63782    4999.0773    16117.588 
   40000   -254679.24    77.313003   -254601.92    377.83918    5133.3646    16117.588 
   40100   -254679.59    77.767667   -254601.83    380.06118    5154.9355    16117.588 
   40200   -254679.39    75.355601   -254604.04    368.27309    4953.3422    16117.588 
   40300   -254678.65    73.562096   -254605.09    359.50799    4880.3106    16117.588 
   40400   -254679.71    76.008612   -254603.71    371.46444    5023.0779    16117.588 
   40500   -254680.34    77.824547   -254602.51    380.33916     5116.098    16117.588 
   40600   -254677.25    75.207037   -254602.04    367.54704    5016.6382    16117.588 
   40700   -254680.52    77.824597    -254602.7    380.33941    5207.8059    16117.588 
   40800   -254680.63    77.261132   -254603.37    377.58568    5080.3009    16117.588 
   40900   -254680.66    75.726503   -254604.94    370.08574    4977.7183    16117.588 
   41000   -254682.16    75.420931   -254606.74    368.59237    4958.7523    16117.588 
   41100   -254683.05    74.938711   -254608.11    366.23569      5005.28    16117.588 
   41200   -254681.89    76.272926   -254605.62    372.75618    5014.7399    16117.588 
   41300   -254678.96    76.419511   -254602.54    373.47256    5130.6819    16117.588 
   41400   -254677.78    75.796318   -254601.98    370.42693    4985.4818    16117.588 
   41500   -254679.71    76.718671   -254602.99     374.9346    5046.6107    16117.588 
   41600   -254680.99    74.287369    -254606.7    363.05249    4884.5123    16117.588 
   41700   -254684.17     76.35944   -254607.81    373.17899    5021.5421    16117.588 
   41800   -254683.58     76.44738   -254607.13    373.60876    5027.4181    16117.588 
   41900   -254682.91    76.106951   -254606.81    371.94504    5004.1875    16117.588 
   42000   -254681.13    76.046976   -254605.08    371.65193    4999.6125    16117.588 
   42100   -254680.53    77.026453    -254603.5    376.43877    5063.8562    16117.588 
   42200   -254682.12    78.584578   -254603.53    384.05354    5205.9742    16117.588 
   42300   -254681.46    77.090316   -254604.37    376.75088    5068.1937    16117.588 
   42400   -254682.57    73.925893   -254608.65    361.28591     4978.202    16117.588 
   42500   -254684.25    75.565743   -254608.68    369.30008    4992.7698    16117.588 
   42600   -254682.01    75.163956   -254606.85    367.33649     4967.775    16117.588 
   42700   -254683.41    78.795461   -254604.62    385.08415    5182.6629    16117.588 
   42800   -254681.17    77.254843   -254603.92    377.55494    5139.6865    16117.588 
   42900   -254680.51    76.771091   -254603.74    375.19078    5047.1801    16117.588 
   43000   -254680.96    77.157494    -254603.8    377.07919    5072.7452    16117.588 
   43100    -254681.6    78.710284   -254602.89    384.66788    5176.2477    16117.588 
   43200   -254679.89    75.698732   -254604.19    369.95002    5036.1986    16117.588 
   43300   -254678.98    73.623029   -254605.36    359.80577    4839.2091    16117.588 
   43400   -254680.73     76.66135   -254604.07    374.65446    5039.9574    16117.588 
   43500   -254679.98    77.231487   -254602.75     377.4408    5077.6392    16117.588 
   43600   -254681.32    77.181362   -254604.13    377.19583    5149.8917    16117.588 
   43700   -254684.77    77.247748   -254607.53    377.52027    5078.9496    16117.588 
   43800   -254684.03    75.374699   -254608.65    368.36642    4954.4022    16117.588 
   43900    -254680.5    74.423127   -254606.08    363.71596    5003.9924    16117.588 
   44000    -254678.5    74.126287   -254604.37    362.26526    4871.8233    16117.588 
   44100   -254680.79     76.74866   -254604.05    375.08116    5046.5587    16117.588 
   44200   -254678.67    75.578635   -254603.09    369.36309    4969.0172    16117.588 
   44300   -254680.04    78.271478   -254601.77    382.52338    5149.0149    16117.588 
   44400   -254677.31    77.097359   -254600.22     376.7853    5094.7679    16117.588 
   44500   -254678.41    80.396227   -254598.02    392.90732    5289.0311    16117.588 
   44600   -254679.15    77.647538    -254601.5     379.4741    5106.2884    16117.588 
   44700    -254680.5      76.9469   -254603.55    376.04998    5103.2273    16117.588 
   44800   -254680.02    76.627396   -254603.39    374.48852    5039.3068    16117.588 
   44900   -254676.97    74.819037   -254602.15    365.65083    4919.5735    16117.588 
   45000   -254676.48    78.323283   -254598.16    382.77655    5149.8703    16117.588 
   45100   -254678.41    80.325727   -254598.08    392.56277    5283.9703    16117.588 
   45200   -254679.43    78.043231   -254601.39     381.4079    5133.5762    16117.588 
   45300   -254679.07    76.562874   -254602.51     374.1732    5095.8669    16117.588 
   45400   -254680.58    76.191848   -254604.38    372.35994    5009.3536    16117.588 
   45500   -254680.37    73.394071   -254606.98    358.68682    4873.6488    16117.588 
   45600   -254681.75    74.593047   -254607.15    364.54638    4904.2786    16117.588 
   45700   -254681.56    77.112151   -254604.45    376.85759    5070.3889    16117.588 
   45800    -254679.7    77.004065   -254602.69    376.32936     5103.256    16117.588 
   45900   -254679.96    79.384382   -254600.57    387.96229    5218.8069    16117.588 
   46000   -254677.76    78.717934   -254599.04    384.70527    5173.1345    16117.588 
   46100   -254679.17    77.291344   -254601.88    377.73333    5081.2751    16117.588 
   46200   -254678.21     73.71949   -254604.49    360.27719    4845.4852    16117.588 
   46300   -254682.26    78.558852    -254603.7    383.92781    5296.9432    16117.588 
   46400   -254679.37    76.594364   -254602.78    374.32709    5036.5911    16117.588 
   46500   -254677.34    78.738455    -254598.6    384.80556    5246.2398    16117.588 
   46600   -254677.58    78.696452   -254598.88    384.60028    5177.7754    16117.588 
   46700   -254678.18    76.708093   -254601.47     374.8829    5045.9327    16117.588 
   46800   -254678.06    76.457455    -254601.6      373.658    5028.4271    16117.588 
   46900   -254678.28    78.062321   -254600.22     381.5012    5133.4497    16117.588 
   47000   -254677.94    76.861471   -254601.08    375.63248    5112.3628    16117.588 
   47100   -254680.18    75.857111   -254604.33    370.72403    4988.6653    16117.588 
   47200   -254681.43    75.314483   -254606.11    368.07214    4952.4674    16117.588 
   47300   -254679.39    74.557928   -254604.83    364.37475    4901.8073    16117.588 
   47400   -254679.08    77.990197   -254601.09    381.14872    5157.3363    16117.588 
   47500   -254677.63    79.195603   -254598.43     387.0397    5210.5438    16117.588 
   47600   -254678.38    77.905807   -254600.48    380.73629    5121.8579    16117.588 
   47700   -254680.26     77.03334   -254603.23    376.47243    5065.3779    16117.588 
   47800   -254679.91    75.959429   -254603.95    371.22408    5027.2757    16117.588 
   47900   -254681.15    76.689688   -254604.46    374.79295    5043.1114    16117.588 
   48000    -254680.4    73.051553   -254607.35    357.01289     4803.614    16117.588 
   48100   -254683.95    75.266205   -254608.69     367.8362    4949.4619    16117.588 
   48200   -254680.98    76.220623   -254604.76    372.50057    5012.1314    16117.588 
   48300   -254678.96    76.149337   -254602.81    372.15219     5007.207    16117.588 
   48400   -254681.21    77.701423    -254603.5    379.73744    5107.8399    16117.588 
   48500   -254683.23    77.522071   -254605.71    378.86092    5100.5337    16117.588 
   48600   -254685.36    76.661818    -254608.7    374.65675    5084.2931    16117.588 
   48700   -254683.47    75.013167   -254608.45    366.59957    4968.3081    16117.588 
   48800   -254683.22    79.437112   -254603.78    388.21999    5227.3222    16117.588 
   48900   -254681.39    76.887128    -254604.5    375.75787    5116.7504    16117.588 
   49000   -254681.37    76.515815   -254604.85    373.94321    5059.1343    16117.588 
   49100   -254683.58    79.847865   -254603.74    390.22739     5254.834    16117.588 
   49200   -254682.06    77.438703   -254604.62    378.45349    5095.2664    16117.588 
   49300    -254682.3    75.827622   -254606.47    370.57992    4988.6476    16117.588 
   49400   -254681.77    75.011283   -254606.76    366.59036    4934.4636    16117.588 
   49500   -254680.46    77.390372   -254603.07    378.21729    5122.6848    16117.588 
   49600   -254679.43    78.547526   -254600.89    383.87246    5168.4456    16117.588 
   49700   -254679.31    76.948189   -254602.36    376.05628    5096.7849    16117.588 
   49800   -254681.21    76.359774   -254604.85    373.18062    5048.8715    16117.588 
   49900   -254683.02    77.471738   -254605.54    378.61494    5096.1644    16117.588 
   50000   -254682.89    76.487922    -254606.4    373.80689    5029.9839    16117.588 
   50100   -254681.81    77.246637   -254604.57    377.51484     5107.065    16117.588 
   50200   -254680.54    78.518549   -254602.02    383.73085    5164.1743    16117.588 
   50300   -254679.03     73.50393   -254605.53    359.22372    4833.1752    16117.588 
   50400   -254680.86    73.585227   -254607.27    359.62103    4837.1822    16117.588 
   50500   -254682.44    76.175701   -254606.26    372.28103    5057.5386    16117.588 
   50600   -254680.56    76.897624   -254603.66    375.80916    5055.9484    16117.588 
   50700   -254679.49    78.296763   -254601.19    382.64695     5147.341    16117.588 
   50800   -254678.81    77.078712   -254601.73    376.69417    5155.6512    16117.588 
   50900   -254678.62    76.221821    -254602.4    372.50642    5035.4601    16117.588 
   51000   -254678.01      74.7326   -254603.27     365.2284    4913.9286    16117.588 
   51100   -254679.08    75.096954   -254603.98    367.00904    5005.3125    16117.588 
   51200   -254680.32    76.753337   -254603.57    375.10402    5097.5325    16117.588 
   51300   -254679.82     77.78677   -254602.03    380.15454    5115.6476    16117.588 
   51400   -254680.14    77.090607   -254603.05     376.7523    5070.2564    16117.588 
   51500   -254682.91    77.238985   -254605.67    377.47744    5079.6064    16117.588 
   51600   -254682.97    75.982137   -254606.99    371.33505    5033.1277    16117.588 
   51700   -254682.14    75.734855   -254606.41    370.12656    5065.4089    16117.588 
   51800   -254680.58    78.451538   -254602.12    383.40335    5316.2263    16117.588 
   51900   -254682.02    79.163916   -254602.86    386.88484    5250.8049    16117.588 
   52000   -254680.11    75.353179   -254604.76    368.26125    4994.7306    16117.588 
   52100   -254682.73    76.112167   -254606.62    371.97053    5028.6096    16117.588 
   52200   -254683.64    74.736959   -254608.91     365.2497    4914.6464    16117.588 
   52300      -254686    74.366814   -254611.63    363.44075    4889.6848    16117.588 
   52400    -254685.2    76.961986   -254608.24    376.12371    5061.0187    16117.588 
   52500   -254681.63     75.19423   -254606.43    367.48445    5024.7164    16117.588 
   52600   -254684.21    78.913203   -254605.29    385.65957    5189.6438    16117.588 
   52700   -254684.06    78.081793   -254605.97    381.59636    5165.6225    16117.588 
   52800   -254682.41    75.954454   -254606.46    371.19976    5025.3297    16117.588 
   52900   -254682.77     77.26884    -254605.5    377.62335    5180.5978    16117.588 
   53000   -254680.74    77.415445   -254603.32    378.33983    5088.2965    16117.588 
   53100   -254678.52    77.425805   -254601.09    378.39046    5089.8652    16117.588 
   53200   -254677.76    76.435047   -254601.32    373.54849    5065.7379    16117.588 
   53300   -254682.82    76.913917   -254605.91    375.88879    5163.3734    16117.588 
   53400   -254682.77    75.262129   -254607.51    367.81628    4948.2079    16117.588 
   53500   -254684.53    76.304861   -254608.22    372.91225    5061.2241    16117.588 
   53600   -254684.19    75.648638   -254608.54     369.7052    4975.1629    16117.588 
   53700   -254682.73    77.665501   -254605.07    379.56189    5180.3546    16117.588 
   53800    -254679.3    76.750774   -254602.55    375.09149    5141.3899    16117.588 
   53900   -254680.42    77.541619   -254602.88    378.95646    5100.5304    16117.588 
   54000    -254681.6    76.722861   -254604.88    374.95508    5092.0191    16117.588 
   54100   -254683.08     75.16071   -254607.92    367.32063      4942.63    16117.588 
   54200   -254686.05    77.392285   -254608.65    378.22664    5089.8502    16117.588 
   54300   -254683.43    75.671603   -254607.76    369.81743    4976.2597    16117.588 
   54400   -254684.48    77.979554    -254606.5    381.09671    5202.7422    16117.588 
   54500   -254680.85    76.844595      -254604       375.55    5078.4872    16117.588 
   54600   -254680.29    77.732614   -254602.56    379.88987    5386.4108    16117.588 
   54700   -254679.83     75.42077   -254604.41    368.59158    5022.4629    16117.588 
   54800    -254683.7    76.265986   -254607.43    372.72226    5014.1196    16117.588 
   54900   -254684.19    76.174762   -254608.01    372.27644    5052.4869    16117.588 
   55000   -254682.57    77.807037   -254604.76    380.25359     5116.829    16117.588 
   55100   -254679.41    77.541417   -254601.87    378.95547    5099.4685    16117.588 
   55200   -254680.31     77.79698   -254602.51    380.20444     5114.854    16117.588 
   55300   -254679.99    75.329853   -254604.66    368.14726    4996.9238    16117.588 
   55400   -254682.29    76.393142    -254605.9    373.34369    5024.4277    16117.588 
   55500   -254681.91    76.523706   -254605.38    373.98178    5032.7506    16117.588 
   55600   -254679.67    77.863982    -254601.8    380.53189    5148.3645    16117.588 
   55700   -254678.15    76.743697   -254601.41     375.0569    5045.4575    16117.588 
   55800   -254680.18    76.762026   -254603.42    375.14648    5047.5751    16117.588 
   55900   -254680.13    74.482166   -254605.65    364.00449     4897.619    16117.588 
   56000   -254681.25    75.660172   -254605.59    369.76157     4975.262    16117.588 
   56100   -254677.71    76.942217   -254600.76     376.0271    5086.5326    16117.588 
   56200   -254677.71    77.858001   -254599.85    380.50266    5121.5095    16117.588 
   56300   -254679.28    76.625978   -254602.66     374.4816     5038.934    16117.588 
   56400   -254679.44    74.722106   -254604.72    365.17711    4914.2635    16117.588 
   56500   -254682.35    76.759869   -254605.59    375.13594    5083.9622    16117.588 
   56600   -254683.29      75.6105   -254607.68    369.51882    5011.9192    16117.588 
   56700   -254686.42    74.706429   -254611.71     365.1005    4912.4236    16117.588 
   56800   -254687.05    76.053344   -254610.99    371.68306    5001.2597    16117.588 
   56900   -254681.77    74.614461   -254607.15    364.65104    4949.3663    16117.588 
   57000   -254680.41    75.005352   -254605.41    366.56137    4994.9305    16117.588 
   57100   -254681.08    77.902103   -254603.18    380.71819    5123.4698    16117.588 
   57200   -254679.67    77.153463   -254602.52    377.05948    5102.8949    16117.588 
   57300   -254681.18    76.107928   -254605.07    371.94981    5004.7073    16117.588 
   57400   -254682.07    74.115295   -254607.95    362.21155    4974.5542    16117.588 
   57500   -254685.36    77.332493   -254608.02    377.93443    5111.1535    16117.588 
   57600   -254680.97    74.991297   -254605.98    366.49268    4967.2478    16117.588 
   57700   -254680.28    75.545893   -254604.74    369.20307    4967.5196    16117.588 
   57800   -254680.46     77.58309   -254602.87    379.15913     5144.442    16117.588 
   57900   -254678.92    77.082846   -254601.84    376.71437    5093.4512    16117.588 
   58000   -254676.92    74.990432   -254601.93    366.48846    4960.4263    16117.588 
   58100   -254683.36     77.42663   -254605.93    378.39449    5094.3309    16117.588 
   58200   -254681.17    73.986561   -254607.18     361.5824    4897.4527    16117.588 
   58300    -254681.6    76.781447   -254604.81    375.24139    5050.1087    16117.588 
   58400   -254678.56     76.21506   -254602.34    372.47338    5012.3766    16117.588 
   58500   -254680.29    78.733084   -254601.55    384.77931    5178.1269    16117.588 
   58600   -254680.71    76.583042   -254604.12    374.27176    5036.2733    16117.588 
   58700   -254681.01    75.077319   -254605.93    366.91309    4936.8163    16117.588 
   58800   -254680.91    75.873156   -254605.03    370.80245    5138.9388    16117.588 
   58900   -254680.03    76.460559   -254603.57    373.67317    5025.2852    16117.588 
   59000   -254678.29    76.463657   -254601.83    373.68831    5028.4653    16117.588 
   59100   -254677.83    77.229378    -254600.6    377.43049    5116.4336    16117.588 
   59200   -254681.21    79.269614   -254601.94    387.40141    5210.7822    16117.588 
   59300   -254681.38    74.815142   -254606.57    365.63179    4918.3419    16117.588 
   59400   -254680.32    74.773445   -254605.54    365.42801    4915.9712    16117.588 
   59500   -254679.83    77.381591   -254602.45    378.17438    5090.1765    16117.588 
   59600   -254680.51    79.074476   -254601.43    386.44774    5224.4189    16117.588 
   59700   -254680.03    76.107863   -254603.92     371.9495    5032.6041    16117.588 
   59800   -254681.85    74.972167   -254606.88     366.3992    4930.7879    16117.588 
   59900   -254682.04    75.902392   -254606.14    370.94533    4992.9344    16117.588 
   60000   -254682.55    77.112659   -254605.43    376.86007    5178.8289    16117.588 
   60100    -254679.7    75.401691    -254604.3    368.49834    4997.0475    16117.588 
   60200    -254679.8    78.092589   -254601.71    381.64912    5136.1394    16117.588 
   60300   -254677.97     77.79067   -254600.18     380.1736    5116.3182    16117.588 
   60400   -254681.71    77.358237   -254604.35    378.06024    5148.5582    16117.588 
   60500   -254683.27    77.695878   -254605.58    379.71034    5109.9746    16117.588 
   60600      -254682    77.565774   -254604.43     379.0745    5257.8189    16117.588 
   60700   -254681.35    78.918356   -254602.43    385.68476    5191.1184    16117.588 
   60800   -254681.13    77.323036   -254603.81    377.88821    5085.2759    16117.588 
   60900   -254682.89    74.979587   -254607.91    366.43545     4929.596    16117.588 
   61000   -254681.38       74.322   -254607.05    363.22174    4886.6265    16117.588 
   61100   -254679.92    75.523952    -254604.4    369.09585    4995.3286    16117.588 
   61200   -254679.69    77.240367   -254602.45    377.48419    5078.9674    16117.588 
   61300   -254679.14    76.799723   -254602.34    375.33071    5049.4785    16117.588 
   61400   -254678.59    76.228511   -254602.36    372.53912    5012.1075    16117.588 
   61500   -254681.46    77.183357   -254604.27    377.20558    5075.9853    16117.588 
   61600   -254680.66    74.711402   -254605.95     365.1248    5015.6445    16117.588 
   61700   -254680.17    76.045338   -254604.13    371.64393    5050.4395    16117.588 
   61800   -254679.41    78.394839   -254601.02    383.12626    5157.8724    16117.588 
   61900   -254678.24    77.519616   -254600.72    378.84893    5099.3542    16117.588 
   62000   -254678.44    76.319066   -254602.12    372.98168    5049.4427    16117.588 
   62100   -254678.86     74.12236   -254604.74    362.24607    4874.6437    16117.588 
   62200   -254680.92    76.071593   -254604.85    371.77224     5003.257    16117.588 
   62300   -254679.76    75.658528    -254604.1    369.75353    4975.9558    16117.588 
   62400   -254679.39     76.00247   -254603.39    371.43443    4999.0312    16117.588 
   62500   -254679.07    75.992396   -254603.08    371.38519      4998.83    16117.588 
   62600   -254678.57    76.288767   -254602.28     372.8336    5041.8205    16117.588 
   62700   -254678.73    78.807072   -254599.93     385.1409    5184.7819    16117.588 
   62800   -254678.69    80.287186    -254598.4    392.37441    5373.4517    16117.588 
   62900   -254680.17    77.193886   -254602.97    377.25704    5141.5455    16117.588 
   63000   -254681.34    76.640154    -254604.7    374.55087    5075.4266    16117.588 
   63100   -254680.58    76.346132   -254604.23    373.11395    5188.5817    16117.588 
   63200   -254678.17    75.955599   -254602.22    371.20536    4996.0564    16117.588 
   63300   -254678.69    79.183514   -254599.51    386.98062    5210.0332    16117.588 
   63400   -254678.14    77.591539   -254600.54    379.20042     5104.399    16117.588 
   63500   -254678.11    73.233952   -254604.88     357.9043    4856.9871    16117.588 
   63600   -254681.77    76.324158   -254605.45    373.00656    5077.7467    16117.588 
   63700   -254680.09    75.232993   -254604.86    367.67389    5018.9959    16117.588 
   63800   -254680.26    76.498329   -254603.76    373.85776    5030.6435    16117.588 
   63900   -254678.81    76.952967   -254601.86    376.07964    5138.2907    16117.588 
   64000   -254678.13    78.574995   -254599.56     384.0067    5165.8555    16117.588 
   64100   -254679.54    79.030909   -254600.51    386.23482    5198.4653    16117.588 
   64200   -254678.38    73.800342   -254604.58    360.67233    4850.2969    16117.588 
   64300   -254679.98    75.701357   -254604.28    369.96285    5000.1168    16117.588 
   64400   -254679.29    77.661418   -254601.63    379.54193    5305.5555    16117.588 
   64500   -254678.02    77.569086   -254600.45    379.09069    5099.2901    16117.588 
   64600   -254679.27     76.90855   -254602.36    375.86256    5056.6293    16117.588 
   64700   -254683.36     77.19042   -254606.17     377.2401    5076.1381    16117.588 
   64800    -254682.6     75.92149   -254606.68    371.03867     5020.212    16117.588 
   64900   -254681.59    77.191687    -254604.4    377.24629    5074.9914    16117.588 
   65000   -254681.46    79.631809   -254601.83     389.1715    5261.5142    16117.588 
   65100   -254680.19    76.936163   -254603.25    375.99751    5098.2855    16117.588 
   65200   -254681.27    77.211056   -254604.05    377.34095    5077.0962    16117.588 
   65300   -254681.07    77.262853   -254603.81    377.59409    5080.4968    16117.588 
   65400   -254680.87    75.908908   -254604.96    370.97718    5032.0812    16117.588 
   65500   -254681.48    73.492779   -254607.99    359.16922    4829.9476    16117.588 
   65600   -254679.88     74.25266   -254605.62    362.88286    4914.3609    16117.588 
   65700   -254680.75    77.451921    -254603.3    378.51809    5092.8463    16117.588 
   65800   -254679.71     75.81227    -254603.9    370.50489     4983.863    16117.588 
   65900   -254680.99    75.806386   -254605.19    370.47614    4984.5784    16117.588 
   66000   -254680.65    75.535054   -254605.11     369.1501    4965.3656    16117.588 
   66100   -254677.97     76.98071   -254600.99    376.21522     5061.841    16117.588 
   66200   -254678.13    77.499748   -254600.63    378.75183    5096.2751    16117.588 
   66300    -254679.6    76.328693   -254603.28    373.02872    5019.3907    16117.588 
   66400   -254681.12    76.057514   -254605.06    371.70343    5081.6904    16117.588 
   66500    -254678.3    73.931087   -254604.37     361.3113    4898.6904    16117.588 
   66600   -254679.35    75.954171    -254603.4    371.19838    5036.0367    16117.588 
   66700   -254678.88     76.87273   -254602.01     375.6875    5055.9544    16117.588 
   66800   -254678.78    77.381964   -254601.39     378.1762    5152.8925    16117.588 
   66900   -254678.75    77.331142   -254601.42    377.92783    5087.0076    16117.588 
   67000   -254679.42    76.312766   -254603.11    372.95089      5019.29    16117.588 
   67100   -254679.83     73.70802   -254606.12    360.22114    4847.0709    16117.588 
   67200   -254680.94    72.337375    -254608.6    353.52261    4903.5352    16117.588 
   67300   -254681.96    75.702482   -254606.26    369.96834    5148.6645    16117.588 
   67400   -254679.41     75.00183    -254604.4    366.54416    4932.6931    16117.588 
   67500   -254678.51    76.001581    -254602.5    371.43008    4997.8467    16117.588 
   67600   -254681.32    78.347761   -254602.97    382.89618    5153.6017    16117.588 
   67700   -254681.19     75.81213   -254605.38    370.50421    5173.2972    16117.588 
   67800   -254682.47    74.778948    -254607.7     365.4549    4965.6718    16117.588 
   67900   -254679.77    73.844449   -254605.92    360.88788    4854.7841    16117.588 
   68000   -254679.67    77.636575   -254602.04    379.42052    5106.4638    16117.588 
   68100   -254678.57    76.839513   -254601.73    375.52517    5053.5385    16117.588 
   68200   -254680.71    76.905763    -254603.8    375.84894    5058.6168    16117.588 
   68300   -254680.63     76.24374   -254604.39    372.61354    5085.3228    16117.588 
   68400   -254680.01    78.687138   -254601.32    384.55477    5201.3343    16117.588 
   68500   -254678.85    79.752611   -254599.09    389.76188    5297.9083    16117.588 
   68600   -254679.31    77.537562   -254601.77    378.93663    5097.0324    16117.588 
   68700   -254680.17    76.771966    -254603.4    375.19506    5130.7113    16117.588 
   68800   -254679.99    76.307706   -254603.68    372.92615    5018.2583    16117.588 
   68900   -254681.18    78.214678   -254602.96    382.24579    5184.7877    16117.588 
   69000   -254677.08    74.298217   -254602.78    363.10551    4885.3323    16117.588 
   69100   -254678.54    79.100625   -254599.44    386.57553    5204.7399    16117.588 
   69200   -254678.13    79.425884    -254598.7    388.16512      5226.86    16117.588 
   69300      -254681    78.914508   -254602.08    385.66595     5192.936    16117.588 
   69400   -254679.68    75.980817    -254603.7     371.3286    4997.2397    16117.588 
   69500   -254681.21    77.647792   -254603.56    379.47534    5108.8189    16117.588 
   69600   -254681.69     78.80481   -254602.89    385.12984    5218.1383    16117.588 
   69700    -254680.4    77.446323   -254602.96    378.49073    5095.9506    16117.588 
   69800   -254679.98    75.713096   -254604.27    370.02022    5009.5669    16117.588 
   69900   -254681.16    76.242487   -254604.92    372.60742    5011.6173    16117.588 
   70000   -254682.07    77.387875   -254604.69    378.20509     5091.546    16117.588 
   70100   -254681.84    76.663776   -254605.17    374.66632    5044.5419    16117.588 
   70200   -254681.26    74.882875   -254606.37    365.96281    4927.2076    16117.588 
   70300   -254680.54    75.999712   -254604.54    371.42095    5001.0735    16117.588 
   70400   -254677.67    76.352749   -254601.32    373.14629    5022.9066    16117.588 
   70500   -254677.85    77.352327    -254600.5    378.03136    5089.6003    16117.588 
   70600   -254679.55    78.140825   -254601.41    381.88486    5140.4274    16117.588 
   70700   -254682.69    78.139311   -254604.55    381.87746    5141.2143    16117.588 
   70800   -254682.72    76.997179   -254605.72     376.2957    5066.3029    16117.588 
   70900   -254678.16    74.696974   -254603.46    365.05429    4949.4114    16117.588 
   71000   -254678.36    77.978983   -254600.38    381.09391    5128.4542    16117.588 
   71100    -254679.6    80.038538   -254599.56    391.15924    5266.9747    16117.588 
   71200   -254678.77    77.380456   -254601.39    378.16883    5090.1548    16117.588 
   71300    -254679.6     75.57498   -254604.03    369.34522    4970.6998    16117.588 
   71400    -254680.3    76.693563    -254603.6    374.81189    5046.2842    16117.588 
   71500   -254676.75    74.358379   -254602.39    363.39953    4944.6615    16117.588 
   71600   -254677.93    77.648448   -254600.28    379.47855    5109.8601    16117.588 
   71700   -254678.43    80.953378   -254597.48    395.63019     5329.048    16117.588 
   71800   -254679.02    79.412937   -254599.61    388.10184    5267.3038    16117.588 
   71900   -254680.39    77.381185   -254603.01     378.1724    5091.0215    16117.588 
   72000   -254682.48    76.689901   -254605.79      374.794    5045.7922    16117.588 
   72100   -254682.96    76.706851   -254606.25    374.87683    5047.1087    16117.588 
   72200   -254680.27    76.210162   -254604.06    372.44944    5012.8114    16117.588 
   72300    -254680.4    79.433771   -254600.97    388.20366    5227.3648    16117.588 
   72400   -254678.14    76.949157   -254601.19    376.06101    5118.2027    16117.588 
   72500   -254679.66    77.970772   -254601.69    381.05379    5130.6964    16117.588 
   72600   -254679.66    76.947384   -254602.71    376.05235    5062.7098    16117.588 
   72700   -254683.06     78.50562   -254604.55    383.66766    5230.7443    16117.588 
   72800   -254682.31    75.087239   -254607.22    366.96156    4985.5168    16117.588 
   72900   -254684.08    74.959818   -254609.12    366.33884    4930.1527    16117.588 
   73000   -254680.85    74.744224   -254606.11    365.28521    4916.2574    16117.588 
   73100   -254679.46     76.61994   -254602.84    374.45209    5039.2362    16117.588 
   73200   -254679.52    77.225847   -254602.29    377.41323    5081.3313    16117.588 
   73300   -254681.42    77.804908   -254603.62    380.24318    5151.0335    16117.588 
   73400    -254683.2     75.64605   -254607.56    369.69255    4976.8048    16117.588 
   73500   -254684.36    76.132752   -254608.23    372.07113    5009.5637    16117.588 
   73600    -254682.4    77.060018   -254605.34    376.60281    5095.7986    16117.588 
   73700   -254680.45    76.376655   -254604.07    373.26312    5025.2732    16117.588 
   73800   -254679.38    76.024346   -254603.35    371.54134    5048.0151    16117.588 
   73900   -254679.82    77.208737   -254602.62    377.32962     5077.642    16117.588 
   74000   -254680.19    75.112477   -254605.08    367.08491    4939.4531    16117.588 
   74100   -254683.17    75.532316   -254607.64    369.13672    5003.1086    16117.588 
   74200   -254682.83    75.336653   -254607.49    368.18049    4954.3466    16117.588 
   74300   -254683.02    78.132183   -254604.89    381.84262    5137.7293    16117.588 
   74400   -254680.46    78.057863   -254602.41    381.47941    5134.7381    16117.588 
   74500   -254679.36    77.200569   -254602.16     377.2897    5119.1086    16117.588 
   74600   -254679.62    76.307671   -254603.31    372.92598    5166.9201    16117.588 
   74700    -254682.9    78.694209   -254604.21    384.58932    5177.7272    16117.588 
   74800   -254679.02    74.339253   -254604.68    363.30606      4889.22    16117.588 
   74900   -254678.71    76.001786   -254602.71    371.43108    5078.3594    16117.588 
   75000   -254676.35    77.168199   -254599.18     377.1315    5076.3057    16117.588 
   75100    -254676.1    76.323918   -254599.77    373.00539    5019.0133    16117.588 
   75200   -254678.08    76.242957   -254601.83    372.60972    5015.4772    16117.588 
   75300   -254680.05    76.896997   -254603.15     375.8061    5059.4933    16117.588 
   75400   -254682.26    77.917326   -254604.34    380.79259    5159.5274    16117.588 
   75500   -254680.05    74.686634   -254605.36    365.00376    4940.9893    16117.588 
   75600   -254681.21    75.754791   -254605.46    370.22398    5018.0173    16117.588 
   75700   -254682.98    77.166528   -254605.81    377.12334    5132.8097    16117.588 
   75800   -254679.54    77.283245   -254602.26    377.69375    5084.7992    16117.588 
   75900   -254674.76    76.026365   -254598.73     371.5512    5056.3223    16117.588 
   76000   -254676.41    78.642835   -254597.77    384.33825    5172.3442    16117.588 
   76100   -254678.31    78.915315    -254599.4     385.6699    5217.9673    16117.588 
   76200   -254680.52    77.142546   -254603.37    377.00613    5073.9383    16117.588 
   76300   -254680.51    76.152064   -254604.36    372.16551    5008.6016    16117.588 
   76400   -254682.26    77.720093   -254604.54    379.82868    5142.3918    16117.588 
   76500   -254681.79    76.440845   -254605.35    373.57683    5027.5323    16117.588 
   76600   -254681.95    75.373609   -254606.57    368.36109    4957.7366    16117.588 
   76700   -254683.01     76.70666    -254606.3     374.8759    5046.0716    16117.588 
   76800   -254679.39    75.922317   -254603.46    371.04271    4993.9852    16117.588 
   76900   -254678.09    76.815276   -254601.28    375.40672     5053.476    16117.588 
   77000   -254677.52    75.551041   -254601.97    369.22823    4969.2864    16117.588 
   77100   -254679.67    73.355633   -254606.32    358.49897    4858.3918    16117.588 
   77200   -254680.41    74.166665   -254606.24     362.4626    4915.1692    16117.588 
   77300   -254681.21    77.496881   -254603.71    378.73781    5233.1546    16117.588 
   77400    -254678.3    76.059251   -254602.24    371.71192      5005.05    16117.588 
   77500   -254679.97    77.796626   -254602.18    380.20271    5119.9405    16117.588 
   77600   -254683.16    76.635175   -254606.53    374.52654    5042.3552    16117.588 
   77700   -254682.18    74.014231   -254608.17    361.71763    4919.4649    16117.588 
   77800   -254680.98     74.94596   -254606.03    366.27112     4994.694    16117.588 
   77900   -254680.79    77.040885   -254603.75     376.5093    5068.7111    16117.588 
   78000   -254681.45    77.231891   -254604.22    377.44277    5080.5464    16117.588 
   78100    -254683.9    77.528127   -254606.37    378.89052    5101.8711    16117.588 
   78200   -254682.56    72.900299   -254609.66    356.27369    4819.3632    16117.588 
   78300    -254685.4    76.723174   -254608.68    374.95661    5048.6865    16117.588 
   78400   -254679.68    75.378723    -254604.3    368.38609    4959.3445    16117.588 
   78500   -254679.34    76.369524   -254602.97    373.22827    5050.4263    16117.588 
   78600   -254678.81    77.367366   -254601.44    378.10486    5122.5355    16117.588 
   78700    -254676.7    77.771132   -254598.93    380.07812    5200.2358    16117.588 
   78800   -254674.27    77.207783   -254597.06    377.32495    5080.0774    16117.588 
   78900   -254678.04    79.443706    -254598.6    388.25222    5228.3861    16117.588 
   79000   -254681.08    77.855698   -254603.23     380.4914    5123.4184    16117.588 
   79100   -254680.36    77.238188   -254603.12    377.47355    5082.5674    16117.588 
   79200   -254677.83    75.465965   -254602.37    368.81245    4964.7477    16117.588 
   79300    -254676.3    75.372459   -254600.93    368.35548    4957.5277    16117.588 
   79400   -254677.97    76.818495   -254601.15    375.42245    5094.9094    16117.588 
   79500   -254681.42    76.113054   -254605.31    371.97486    5007.7152    16117.588 
   79600   -254679.88    73.660103   -254606.22    359.98696    4896.3072    16117.588 
   79700    -254683.5    79.243528   -254604.26    387.27392    5264.0588    16117.588 
   79800   -254683.21     79.61608   -254603.59    389.09463    5234.8942    16117.588 
   79900   -254682.81    75.970227   -254606.84    371.27685    5037.9855    16117.588 
   80000    -254684.7    74.859266   -254609.84    365.84743    4965.8722    16117.588 
   80100   -254680.89    73.590663    -254607.3    359.64759     4840.649    16117.588 
   80200   -254677.14    72.935864   -254604.21     356.4475    4874.6571    16117.588 
   80300   -254678.66    76.211195   -254602.45    372.45449    5014.4377    16117.588 
   80400   -254679.16    76.587777   -254602.57     374.2949    5038.9551    16117.588 
   80500   -254678.57    74.381229   -254604.19     363.5112    4923.0289    16117.588 
   80600   -254682.55    74.946833    -254607.6    366.27539    4981.1477    16117.588 
   80700   -254683.31    74.154341   -254609.15    362.40237    4952.5187    16117.588 
   80800   -254683.49    75.786392    -254607.7    370.37842    4986.7992    16117.588 
   80900   -254681.17    78.197441   -254602.97    382.16155     5195.041    16117.588 
   81000   -254679.16     77.13808   -254602.02    376.98431    5077.2623    16117.588 
   81100   -254681.16    77.343518   -254603.82    377.98831    5089.4502    16117.588 
   81200      -254682    75.555512   -254606.45    369.25008    5011.1336    16117.588 
   81300   -254680.95    75.814937   -254605.13    370.51793    4988.9236    16117.588 
   81400   -254682.07    79.061361   -254603.01    386.38364    5203.1291    16117.588 
   81500   -254684.24    81.078463   -254603.16     396.2415     5337.296    16117.588 
   81600   -254683.76    75.608287   -254608.15      369.508     5137.691    16117.588 
   81700   -254684.97    76.182996   -254608.78    372.31668    5044.1962    16117.588 
   81800   -254681.27     75.28185   -254605.98    367.91266    4952.8993    16117.588 
   81900   -254679.97    77.494324   -254602.47    378.72532    5098.7716    16117.588 
   82000    -254680.8    78.887967   -254601.91    385.53624    5191.9478    16117.588 
   82100   -254678.72     76.83753   -254601.88    375.51548    5108.7737    16117.588 
   82200   -254679.51    75.975073   -254603.54    371.30053    5035.7411    16117.588 
   82300   -254682.09    75.082332   -254607.01    366.93759    4938.8309    16117.588 
   82400   -254682.53    75.666171   -254606.87    369.79089    4978.8009    16117.588 
   82500   -254680.97    77.054207   -254603.92    376.57441    5188.6134    16117.588 
   82600   -254680.37    77.264182   -254603.11    377.60058    5084.0017    16117.588 
   82700   -254678.82    75.957409   -254602.86    371.21421    5162.6509    16117.588 
   82800   -254678.28    75.273479   -254603.01    367.87175    5003.7663    16117.588 
   82900   -254681.06    75.964506    -254605.1    371.24889    4998.9845    16117.588 
   83000   -254682.29    74.576582   -254607.72    364.46592     4906.297    16117.588 
   83100   -254680.39    74.815983   -254605.57     365.6359    4955.8373    16117.588 
   83200   -254680.91    78.459758   -254602.45    383.44353    5163.0581    16117.588 
   83300   -254679.24     77.77125   -254601.47     380.0787     5117.055    16117.588 
   83400   -254680.58    79.019643   -254601.56    386.17976    5199.0142    16117.588 
   83500   -254681.74    77.677282   -254604.06    379.61946    5109.9573    16117.588 
   83600   -254682.84    76.053022   -254606.79    371.68148    5029.6362    16117.588 
   83700   -254680.78    73.569779   -254607.21    359.54553    4838.7191    16117.588 
   83800   -254680.69    78.118218   -254602.57    381.77438     5140.423    16117.588 
   83900   -254679.92    77.236844   -254602.68    377.46698    5163.2644    16117.588 
   84000   -254681.93    78.303157   -254603.63     382.6782     5152.095    16117.588 
   84100   -254681.35    75.014653   -254606.33    366.60683    4934.1146    16117.588 
   84200   -254683.23    76.984481   -254606.25    376.23365    5064.2357    16117.588 
   84300    -254679.4    78.508644   -254600.89    383.68244    5191.6496    16117.588 
   84400   -254677.62    76.984841   -254600.64    376.23541    5090.0273    16117.588 
   84500   -254682.88    79.924308   -254602.96    390.60098    5293.5585    16117.588 
   84600   -254680.52    74.572399   -254605.95    364.44548    5002.9986    16117.588 
   84700   -254681.97    76.309234   -254605.66    372.93362     5019.824    16117.588 
   84800   -254678.98     74.75864   -254604.22    365.35566    4916.1583    16117.588 
   84900   -254682.19    81.369355   -254600.82    397.66312    5378.8832    16117.588 
   85000   -254677.48    76.525886   -254600.95    373.99243    5033.9813    16117.588 
   85100   -254679.62    76.949048   -254602.67    376.06048    5155.6257    16117.588 
   85200   -254681.56    78.515703   -254603.05    383.71694    5166.5918    16117.588 
   85300   -254680.31    77.897924   -254602.41    380.69777    5165.7432    16117.588 
   85400   -254679.38    77.921275   -254601.46    380.81189    5126.7656    16117.588 
   85500   -254676.53    76.560571   -254599.97    374.16194     5035.081    16117.588 
   85600   -254679.65    79.541865   -254600.11    388.73193    5231.7789    16117.588 
   85700   -254677.51    75.051514   -254602.45    366.78697    4933.2551    16117.588 
   85800   -254680.97    75.826125   -254605.14     370.5726    4987.4333    16117.588 
   85900   -254682.22    75.770354   -254606.45    370.30005    5049.5798    16117.588 
   86000      -254683    76.722709   -254606.28    374.95433    5047.6258    16117.588 
   86100   -254680.11    75.840731   -254604.27    370.64398    4988.6552    16117.588 
   86200   -254678.62    77.479955   -254601.14     378.6551    5097.9224    16117.588 
   86300   -254681.65    79.251459    -254602.4    387.31268    5214.8601    16117.588 
   86400   -254682.25    76.692117   -254605.55    374.80483    5046.1597    16117.588 
   86500   -254684.52    78.062557   -254606.46    381.50235    5136.9206    16117.588 
   86600   -254681.87    74.418279   -254607.45    363.69227    4967.9008    16117.588 
   86700    -254683.8    76.246278   -254607.56    372.62595    5016.9017    16117.588 
   86800   -254682.39    77.271071   -254605.12    377.63425    5109.9483    16117.588 
   86900   -254679.92    77.045686   -254602.87    376.53276    5069.6969    16117.588 
   87000   -254676.88    74.741514   -254602.14    365.27196     4948.115    16117.588 
   87100   -254679.13    76.492517   -254602.63    373.82935    5033.2379    16117.588 
   87200   -254681.56    76.930935   -254604.63    375.97196    5060.6611    16117.588 
   87300   -254681.63    73.996324   -254607.64    361.63012    4924.3527    16117.588 
   87400   -254683.08     75.43723   -254607.64    368.67202    4962.9061    16117.588 
   87500   -254679.96    75.762275    -254604.2    370.26056    4983.0736    16117.588 
   87600   -254678.54    77.169224   -254601.37    377.13651    5075.3126    16117.588 
   87700   -254680.13     78.53089    -254601.6    383.79116    5201.1271    16117.588 
   87800   -254679.83     77.27198   -254602.56    377.63869    5084.1923    16117.588 
   87900   -254678.02    76.469048   -254601.55    373.71466     5079.228    16117.588 
   88000   -254676.59     79.28697    -254597.3    387.48622    5217.1145    16117.588 
   88100   -254676.88     79.12354   -254597.75    386.68752    5234.4437    16117.588 
   88200   -254680.54    79.338505   -254601.21    387.73808    5220.8281    16117.588 
   88300   -254680.62    77.349161   -254603.27    378.01589    5151.7871    16117.588 
[...]
  408900   -254679.94    77.558172   -254602.38    379.03735    5099.6946    16117.588 
  409000   -254681.24    78.325629   -254602.91    382.78802    5149.6125    16117.588 
  409100   -254682.64    77.243112    -254605.4    377.49761    5103.1486    16117.588 
  409200   -254685.05    76.428582   -254608.62    373.51689    5050.4087    16117.588 
  409300   -254680.13    74.419107   -254605.71    363.69632    4888.9576    16117.588 
  409400   -254678.53    74.618138   -254603.92    364.66901    4936.6327    16117.588 
  409500   -254679.87    76.177409   -254603.69    372.28937    5007.6404    16117.588 
  409600   -254679.83    75.664125   -254604.16    369.78089    4974.1494    16117.588 
  409700   -254680.85    76.031292   -254604.82    371.57528    4998.3588    16117.588 
  409800   -254680.86    78.297592   -254602.56      382.651    5147.6353    16117.588 
  409900   -254682.43    81.431551   -254600.99    397.96708    5425.3167    16117.588 
  410000   -254678.59    74.903034   -254603.69    366.06133    4922.7271    16117.588 
  410100   -254682.21    75.754389   -254606.45    370.22202     4978.615    16117.588 
  410200    -254680.8    75.170707   -254605.63    367.36949    4940.1919    16117.588 
  410300   -254681.14    76.872238   -254604.27     375.6851    5096.7572    16117.588 
  410400      -254680    78.363082   -254601.64    382.97106    5174.7577    16117.588 
  410500   -254677.07    77.287921   -254599.78     377.7166    5127.1143    16117.588 
  410600    -254677.9    78.115996   -254599.78    381.76352    5133.5333    16117.588 
  410700   -254679.52     77.75839   -254601.76    380.01585     5109.664    16117.588 
  410800   -254679.26    75.936156   -254603.33    371.11034    4988.9435    16117.588 
  410900   -254681.93    77.423893    -254604.5    378.38111     5115.895    16117.588 
  411000   -254682.19    75.243562   -254606.95    367.72554    4943.0598    16117.588 
  411100   -254682.09    74.591791    -254607.5    364.54024    4900.2652    16117.588 
  411200   -254681.05    77.321241   -254603.73    377.87944    5080.6777    16117.588 
  411300   -254681.89    79.819671   -254602.07    390.08961    5246.7468    16117.588 
  411400   -254679.37    76.697757   -254602.67    374.83239    5040.2118    16117.588 
  411500   -254681.12     75.99849   -254605.13    371.41497    5020.1489    16117.588 
  411600   -254679.71    74.042645   -254605.67    361.85649    4897.4134    16117.588 
  411700   -254678.23    77.245255   -254600.98    377.50809    5076.3606    16117.588 
  411800   -254679.05    78.608777   -254600.44     384.1718    5166.2413    16117.588 
  411900   -254680.97    78.313173   -254602.66    382.72714    5148.2794    16117.588 
  412000   -254679.21    74.818938   -254604.39    365.65034    4942.4308    16117.588 
  412100    -254679.8    76.264889   -254603.54     372.7169    5096.9863    16117.588 
  412200   -254677.98    78.737254   -254599.25    384.79969    5175.5366    16117.588 
  412300   -254676.44    77.484289   -254598.95    378.67628     5092.652    16117.588 
  412400   -254678.11    77.075973   -254601.03    376.68078    5099.7698    16117.588 
  412500   -254679.11    76.600776   -254602.51    374.35843    5035.3362    16117.588 
  412600   -254679.06    75.348893   -254603.71    368.24031    4993.8819    16117.588 
  412700   -254681.23    78.856574   -254602.37    385.38282    5183.9747    16117.588 
  412800   -254679.43    77.098921   -254602.33    376.79293    5067.7704    16117.588 
  412900   -254680.94    78.032545   -254602.91    381.35568    5130.1889    16117.588 
  413000   -254681.26    78.350116   -254602.91    382.90769     5151.147    16117.588 
  413100   -254678.73    75.184273   -254603.55    367.43579    4982.7111    16117.588 
  413200   -254681.13    78.178779   -254602.96    382.07034     5139.104    16117.588 
  413300   -254678.68    77.358318   -254601.32    378.06064     5188.926    16117.588 
  413400   -254678.26      78.8785   -254599.39    385.48998    5184.6859    16117.588 
  413500   -254675.07    76.333946   -254598.74    373.05439    5012.5825    16117.588 
  413600   -254678.73    76.252888   -254602.48    372.65825     5070.767    16117.588 
  413700   -254679.47    74.743772   -254604.72      365.283    4909.8002    16117.588 
  413800   -254680.05    75.206173   -254604.84    367.54281    5025.1386    16117.588 
  413900   -254682.11    79.822168   -254602.29    390.10181    5335.2538    16117.588 
  414000   -254680.41    79.355893   -254601.05    387.82306    5338.1969    16117.588 
  414100   -254678.83    76.457748   -254602.38    373.65943    5025.2938    16117.588 
  414200   -254679.28    74.354445   -254604.93     363.3803    5009.2631    16117.588 
  414300   -254680.37    75.650109   -254604.72    369.71239    4970.7087    16117.588 
  414400    -254681.1    78.898601    -254602.2    385.58821    5187.1553    16117.588 
  414500   -254677.38    76.207024   -254601.17    372.43411    5009.4268    16117.588 
  414600   -254678.52    76.418738    -254602.1    373.46878    5023.0834    16117.588 
  414700   -254681.93    76.465375   -254605.47    373.69671    5026.1807    16117.588 
  414800   -254682.08    76.108415   -254605.97    371.95219    4997.8493    16117.588 
  414900   -254679.21    76.017291   -254603.19    371.50686    4995.7922    16117.588 
  415000   -254681.38    80.291627   -254601.09    392.39612    5279.6043    16117.588 
  415100   -254677.76    76.554922    -254601.2    374.13433    5031.4937    16117.588 
  415200   -254680.12    77.201315   -254602.92    377.29335    5073.4699    16117.588 
  415300   -254680.22    76.324696    -254603.9    373.00919    5041.4017    16117.588 
  415400   -254680.01    75.559074   -254604.45    369.26749    4966.3895    16117.588 
  415500   -254679.33    76.369955   -254602.96    373.23037    5057.3941    16117.588 
  415600   -254678.55    77.818256   -254600.73    380.30842    5115.0793    16117.588 
  415700   -254678.01    79.278363   -254598.73    387.44416    5282.5891    16117.588 
  415800   -254679.29    80.098317   -254599.19    391.45139     5340.789    16117.588 
  415900   -254677.93    74.579522   -254603.35    364.48029    4900.3309    16117.588 
  416000   -254677.85    73.675917   -254604.18    360.06424     4865.075    16117.588 
  416100   -254679.16    77.090006   -254602.07    376.74936    5065.2919    16117.588 
  416200   -254677.12    77.326485    -254599.8    377.90507    5081.4221    16117.588 
  416300   -254675.64    75.463602   -254600.17     368.8009    4958.5927    16117.588 
  416400   -254679.62    74.919375    -254604.7    366.14119    4921.9298    16117.588 
  416500   -254680.64    74.633638   -254606.01    364.74475    4902.3634    16117.588 
  416600   -254682.73     78.24097   -254604.49    382.37428    5142.6558    16117.588 
  416700   -254678.05      74.4412   -254603.61    363.80429    4948.8235    16117.588 
  416800   -254678.81    78.989199   -254599.82    386.03098    5192.4693    16117.588 
  416900   -254677.19    78.299944   -254598.89     382.6625     5146.616    16117.588 
  417000   -254677.89     77.13824   -254600.75    376.98509    5068.6504    16117.588 
  417100   -254676.32    74.732858   -254601.59    365.22966     4908.935    16117.588 
  417200   -254677.69    76.446054   -254601.24    373.60228    5023.8081    16117.588 
  417300   -254678.82    78.146625   -254600.67    381.91321     5248.553    16117.588 
  417400   -254678.22    77.767864   -254600.46    380.06215    5110.5788    16117.588 
  417500   -254678.97    78.327417   -254600.65    382.79676    5148.5664    16117.588 
  417600   -254678.69    75.100432   -254603.59    367.02604    4934.7816    16117.588 
  417700   -254681.04    75.749568   -254605.29    370.19846    4977.8498    16117.588 
  417800   -254681.96    77.020067   -254604.94    376.40756    5099.4479    16117.588 
  417900   -254678.79    77.527266   -254601.26    378.88631    5140.9078    16117.588 
  418000   -254676.92    78.388569   -254598.53    383.09562    5152.4491    16117.588 
  418100   -254675.73     76.89038   -254598.84    375.77376    5127.3662    16117.588 
  418200   -254679.39    78.483581   -254600.91    383.55995    5156.9725    16117.588 
  418300   -254679.63    75.722672   -254603.91    370.06702    4975.0178    16117.588 
  418400   -254679.44    74.975305   -254604.47    366.41453    4926.2864    16117.588 
  418500   -254678.93     75.10754   -254603.82    367.06078    4935.3101    16117.588 
  418600   -254681.29    80.448246   -254600.84    393.16154    5288.9653    16117.588 
  418700   -254679.92    79.863309   -254600.05    390.30287    5250.8704    16117.588 
  418800   -254682.06    77.394867   -254604.66    378.23926    5084.7845    16117.588 
  418900   -254682.23     75.01271   -254607.22    366.59733    5011.7282    16117.588 
  419000   -254682.22    75.374453   -254606.84    368.36522    4951.8151    16117.588 
  419100   -254682.12    77.735238   -254604.39     379.9027    5108.3769    16117.588 
  419200   -254678.14    75.541596    -254602.6    369.18207    5014.4075    16117.588 
  419300   -254678.45    78.094287   -254600.36    381.65742    5127.6819    16117.588 
  419400   -254676.62    74.998485   -254601.62    366.52781    4958.5665    16117.588 
  419500   -254678.05    72.882682   -254605.17     356.1876    4785.1638    16117.588 
  419600   -254679.94    75.772308   -254604.16    370.30959    4976.8599    16117.588 
  419700    -254676.9    75.629266   -254601.27    369.61053    4967.6697    16117.588 
  419800   -254679.45    79.086746   -254600.36     386.5077    5197.8673    16117.588 
  419900   -254677.05    75.005654   -254602.05    366.56285    4927.8131    16117.588 
  420000   -254677.47    75.047246   -254602.42    366.76612    4980.1616    16117.588 
  420100   -254675.94    73.919733   -254602.02    361.25581    4990.8881    16117.588 
  420200    -254680.3    79.244481   -254601.06    387.27858    5209.4137    16117.588 
  420300   -254681.19    78.278524   -254602.91    382.55781     5144.946    16117.588 
  420400   -254682.35     77.57152   -254604.78    379.10259    5097.2658    16117.588 
  420500   -254679.34    73.633597    -254605.7    359.85742    4835.9844    16117.588 
  420600   -254678.11    73.813034   -254604.29    360.73435    4847.9408    16117.588 
  420700   -254679.75    77.341355   -254602.41    377.97774    5080.4444    16117.588 
  420800   -254679.93    77.091117   -254602.84    376.75479    5121.2103    16117.588 
  420900   -254681.25    76.810372   -254604.44    375.38275    5042.7366    16117.588 
  421000   -254682.53    76.432977    -254606.1    373.53837    5019.8753    16117.588 
  421100   -254682.59     74.71319   -254607.88    365.13354    4907.6793    16117.588 
  421200   -254683.06    75.657783    -254607.4    369.74989    5023.4243    16117.588 
  421300   -254683.11    79.308374    -254603.8    387.59083    5241.5423    16117.588 
  421400   -254678.11    76.417707   -254601.69    373.46374    5018.5301    16117.588 
  421500   -254679.07    76.795179   -254602.27     375.3085    5160.4153    16117.588 
  421600   -254679.88    74.960643   -254604.92    366.34288    4923.1873    16117.588 
  421700   -254684.29    76.319183   -254607.97    372.98225    5066.6209    16117.588 
  421800   -254682.27     74.74827   -254607.53    365.30498    4909.6463    16117.588 
  421900   -254681.83     78.83062      -254603    385.25598    5260.2198    16117.588 
  422000    -254680.4     77.52775   -254602.87    378.88868     5093.962    16117.588 
  422100      -254683    78.586782   -254604.41    384.06431    5215.1619    16117.588 
  422200      -254680    73.628483   -254606.37    359.83243     4835.412    16117.588 
  422300   -254682.05     74.66781   -254607.38    364.91176    4903.5788    16117.588 
  422400   -254682.14    77.267915   -254604.87    377.61883    5077.2765    16117.588 
  422500   -254681.69    79.263137   -254602.42    387.36975    5203.8802    16117.588 
  422600   -254680.99     77.39127    -254603.6    378.22168     5085.547    16117.588 
  422700   -254680.95    74.404047   -254606.54    363.62272    4887.2565    16117.588 
  422800   -254682.64    73.490702   -254609.15    359.15907    4826.2875    16117.588 
  422900   -254681.02    75.297644   -254605.72    367.98985    4946.9635    16117.588 
  423000   -254680.07    77.398631   -254602.67    378.25765    5117.1346    16117.588 
  423100   -254678.07    75.294914   -254602.78     367.9765    4948.4499    16117.588 
  423200   -254681.07    76.793684   -254604.27     375.3012    5047.0112    16117.588 
  423300   -254683.23    76.278144   -254606.95    372.78168     5011.259    16117.588 
  423400   -254682.21    75.038981   -254607.17    366.72572    4984.6592    16117.588 
  423500   -254679.38    76.367245   -254603.01    373.21713    5019.1506    16117.588 
  423600   -254679.58    79.161682   -254600.42    386.87393    5287.1027    16117.588 
  423700   -254679.55     78.64167   -254600.91    384.33255    5169.5141    16117.588 
  423800    -254679.7    75.890889   -254603.81    370.88911    4988.5208    16117.588 
  423900   -254681.02    76.071648   -254604.95    371.77251     5036.033    16117.588 
  424000   -254679.33    75.286959   -254604.04    367.93763    4978.6262    16117.588 
  424100   -254677.89    77.910799   -254599.98    380.76069    5124.1022    16117.588 
  424200   -254676.83    76.943664   -254599.89    376.03417    5058.3329    16117.588 
  424300   -254678.99     77.60694   -254601.39    379.27569    5128.4733    16117.588 
  424400    -254681.2    77.194681      -254604    377.26092    5108.7165    16117.588 
  424500   -254682.58    77.907932   -254604.67    380.74668    5122.8052    16117.588 
  424600    -254681.2       76.592   -254604.61    374.31554    5035.7171    16117.588 
  424700    -254684.9    78.907502      -254606    385.63171    5190.0104    16117.588 
  424800   -254684.28    73.258399   -254611.02    358.02378    4838.8303    16117.588 
  424900   -254682.04    72.937016    -254609.1    356.45314    4883.9527    16117.588 
  425000   -254682.19    76.160195   -254606.03    372.20525    5007.0974    16117.588 
  425100   -254680.54    77.105751   -254603.44    376.82631    5070.8947    16117.588 
  425200   -254678.14    76.600224   -254601.54    374.35573    5131.4482    16117.588 
  425300    -254678.6    78.339074   -254600.26    382.85373    5227.3015    16117.588 
  425400   -254677.68    75.805881   -254601.87    370.47367    4983.2965    16117.588 
  425500   -254680.51    75.141367   -254605.37     367.2261    5010.2707    16117.588 
  425600   -254681.26     75.73317   -254605.52    370.11832    4977.5401    16117.588 
  425700   -254681.61    76.518065   -254605.09    373.95421    5066.3418    16117.588 
  425800   -254681.47    78.518904   -254602.95    383.73258    5164.1334    16117.588 
  425900   -254680.51    80.853718   -254599.65    395.14314    5318.3247    16117.588 
  426000   -254678.42    77.362703   -254601.05    378.08207    5087.1502    16117.588 
  426100   -254679.42    76.136536   -254603.28    372.08962    5064.5256    16117.588 
  426200   -254682.86    76.963764    -254605.9     376.1324    5061.7551    16117.588 
  426300   -254679.31    72.080374   -254607.23    352.26661    4737.9094    16117.588 
  426400   -254681.11    75.627599   -254605.48    369.60238    4972.8932    16117.588 
  426500   -254678.09    76.276925   -254601.81    372.77572    5015.2727    16117.588 
  426600   -254678.99    78.127529   -254600.86    381.81988    5170.5552    16117.588 
  426700   -254680.23    77.705052   -254602.53    379.75517    5109.2048    16117.588 
  426800   -254681.51    75.627648   -254605.89    369.60262    4972.0165    16117.588 
  426900   -254679.01    72.623657   -254606.39    354.92171    4819.2855    16117.588 
  427000    -254681.3    78.257553   -254603.05    382.45532    5145.7995    16117.588 
  427100   -254677.74    75.365926   -254602.37    368.32355    4982.0098    16117.588 
  427200    -254681.9    79.205315   -254602.69    387.08717     5209.329    16117.588 
  427300   -254679.98    74.904295   -254605.08    366.06749    4923.8087    16117.588 
  427400   -254681.12    75.664372   -254605.45     369.7821    4973.5972    16117.588 
  427500    -254678.2    76.293998   -254601.91    372.85916    5014.4202    16117.588 
  427600    -254675.8    76.699934    -254599.1    374.84303    5043.8137    16117.588 
  427700   -254677.61    78.899467   -254598.71    385.59244    5356.3077    16117.588 
  427800   -254679.15    76.760476   -254602.39    375.13891    5073.3467    16117.588 
  427900   -254680.68    76.515535   -254604.17    373.94185    5029.7777    16117.588 
  428000    -254679.7    75.913724   -254603.78    371.00071    4990.5015    16117.588 
  428100   -254680.64    77.819299   -254602.82    380.31352     5116.391    16117.588 
  428200   -254678.32    79.810349   -254598.51    390.04405    5305.1084    16117.588 
  428300    -254679.5    80.815153   -254598.68    394.95467    5368.8686    16117.588 
  428400   -254679.38    77.742655   -254601.63    379.93895    5111.6859    16117.588 
  428500   -254676.24    73.970064   -254602.27    361.50178    4859.7409    16117.588 
  428600   -254678.68    76.575136   -254602.11    374.23312    5032.8617    16117.588 
  428700   -254678.67    76.605066   -254602.07    374.37939    5036.3586    16117.588 
  428800   -254678.25     76.79588   -254601.46    375.31193    5048.0992    16117.588 
  428900   -254676.14      76.0897   -254600.05    371.86073     5028.798    16117.588 
  429000    -254675.7    78.297141   -254597.41     382.6488    5235.8425    16117.588 
  429100   -254678.31    79.831463   -254598.48    390.14723    5249.0209    16117.588 
  429200   -254679.33    76.790315   -254602.54    375.28473    5048.1922    16117.588 
  429300   -254677.22    74.518195    -254602.7    364.18057    4921.1454    16117.588 
  429400   -254678.37    76.763919    -254601.6    375.15573    5070.1834    16117.588 
  429500   -254678.18    75.741605   -254602.44    370.15954      4977.54    16117.588 
  429600   -254677.17    72.521925   -254604.65    354.42453    4763.8609    16117.588 
  429700   -254681.29    76.888114   -254604.41    375.76269    5117.0477    16117.588 
  429800   -254680.31    77.889387   -254602.42    380.65604    5146.4247    16117.588 
  429900   -254678.44    78.291227   -254600.14    382.61989    5148.2029    16117.588 
  430000   -254679.15    77.869724   -254601.28    380.55995     5120.876    16117.588 
Loop time of 70998.7 on 1 procs for 430000 steps with 1584 atoms

Performance: 0.262 ns/day, 91.730 hours/ns, 6.056 timesteps/s
98.5% CPU use with 1 MPI tasks x 1 OpenMP threads

MPI task timing breakdown:
Section |  min time  |  avg time  |  max time  |%varavg| %total
---------------------------------------------------------------
Pair    | 67369      | 67369      | 67369      |   0.0 | 94.89
Kspace  | 221.96     | 221.96     | 221.96     |   0.0 |  0.31
Neigh   | 1014.5     | 1014.5     | 1014.5     |   0.0 |  1.43
Comm    | 11.194     | 11.194     | 11.194     |   0.0 |  0.02
Output  | 2368.3     | 2368.3     | 2368.3     |   0.0 |  3.34
Modify  | 11.404     | 11.404     | 11.404     |   0.0 |  0.02
Other   |            | 1.871      |            |       |  0.00

Nlocal:        1584.00 ave        1584 max        1584 min
Histogram: 1 0 0 0 0 0 0 0 0 0
Nghost:        10158.0 ave       10158 max       10158 min
Histogram: 1 0 0 0 0 0 0 0 0 0
Neighs:        819149.0 ave      819149 max      819149 min
Histogram: 1 0 0 0 0 0 0 0 0 0
FullNghs:  1.12572e+06 ave 1.12572e+06 max 1.12572e+06 min
Histogram: 1 0 0 0 0 0 0 0 0 0

Total # of neighbors = 1125718
Ave neighs/atom = 710.68056
Neighbor list builds = 43000
Dangerous builds not checked
Total wall time: 19:43:23
