LAMMPS (29 Sep 2021 - Update 2)
OMP_NUM_THREADS environment is not set. Defaulting to 1 thread. (src/comm.cpp:98)
  using 1 OpenMP thread(s) per MPI task
Reading data file ...
  orthogonal box = (0.0000000 0.0000000 0.0000000) to (25.260000 25.260000 25.260000)
  1 by 1 by 1 MPI processor grid
WARNING: Atom style in data file differs from currently defined atom style (src/read_data.cpp:516)
  reading atoms ...
  1584 atoms
  read_data CPU = 0.002 seconds
NequIP Coeff: type 1 is element O
NequIP Coeff: type 2 is element H
NequIP Coeff: type 3 is element Li
NequIP Coeff: type 4 is element Cl
Scanning dump file ...
Reading snapshot from dump file ...
  orthogonal box = (0.0000000 0.0000000 0.0000000) to (25.260000 25.260000 25.260000)
  1584 atoms before read
  1584 atoms in snapshot
  0 atoms purged
  1584 atoms replaced
  0 atoms trimmed
  0 atoms added
  1584 atoms after read
PPPM initialization ...
  using 12-bit tables for long-range coulomb (src/kspace.cpp:340)
  G vector (1/distance) = 0.22568151
  grid = 9 9 9
  stencil order = 5
  estimated absolute RMS force accuracy = 8.1621662e-06
  estimated relative force accuracy = 5.6683107e-07
  using double precision FFTW3
  3d grid and FFT values/proc = 2744 729
Neighbor list info ...
  update every 10 steps, delay 0 steps, check no
  max neighbors/atom: 2000, page size: 100000
  master list distance cutoff = 12
  ghost atom cutoff = 12
  binsize = 6, bins = 5 5 5
  3 neighbor lists, perpetual/occasional/extra = 3 0 0
  (1) pair nequip, perpetual
      attributes: full, newton off
      pair build: full/bin/atomonly
      stencil: full/bin/3d
      bin: standard
  (2) pair coul/long, perpetual, half/full from (1)
      attributes: half, newton off
      pair build: halffull/newtoff
      stencil: none
      bin: none
  (3) pair gauss/cut, perpetual, copy from (2)
      attributes: half, newton off
      pair build: copy
      stencil: none
      bin: none
Setting up Verlet run ...
  Unit style    : metal
  Current step  : 0
  Time step     : 0.0005
Per MPI rank memory allocation (min/avg/max) = 16.42 | 16.42 | 16.42 Mbytes
Step PotEng KinEng TotEng Temp Press Volume 
       0   -254646.82    56.270173   -254590.55          275    3709.4808    16117.588 
     100   -254672.61    72.796933   -254599.82    355.76853    4780.3798    16117.588 
     200   -254681.09    68.235431   -254612.85    333.47585    4479.8489    16117.588 
     300   -254685.77    60.930251   -254624.84    297.77444    3995.3479    16117.588 
     400   -254693.09    58.921677   -254634.17    287.95826    3862.2008    16117.588 
     500   -254697.79    56.503014   -254641.29    276.13793    3701.9464    16117.588 
     600   -254701.61    55.190093   -254646.42     269.7215    3614.6515    16117.588 
     700   -254704.13    55.414204   -254648.71    270.81677    3665.5476    16117.588 
     800   -254705.68     55.65635   -254650.03    272.00016    3645.6863    16117.588 
     900   -254705.77    56.488879   -254649.28    276.06885    3811.4392    16117.588 
    1000   -254704.91    56.326729   -254648.59     275.2764    3689.7799    16117.588 
    1100   -254706.13    58.146166   -254647.99    284.16824    3810.8093    16117.588 
    1200   -254706.62    56.955158   -254649.67    278.34762     3782.203    16117.588 
    1300   -254708.49    56.389135   -254652.11    275.58139    3693.5884    16117.588 
    1400   -254707.45    54.684695   -254652.77    267.25155    3646.3068    16117.588 
    1500   -254707.71    55.837796   -254651.88    272.88692    3657.1213    16117.588 
    1600   -254708.05    56.450054    -254651.6    275.87911    3697.3705    16117.588 
    1700   -254709.44    57.910068   -254651.53    283.01439    3794.5482    16117.588 
    1800   -254707.92    56.449771   -254651.47    275.87772    3697.4591    16117.588 
    1900   -254707.76    55.206627   -254652.55    269.80231    3614.8655    16117.588 
    2000   -254709.21    56.615751    -254652.6    276.68889    3709.2552    16117.588 
    2100   -254709.37    56.469478    -254652.9    275.97403    3699.1927    16117.588 
    2200   -254710.03    55.355299   -254654.68    270.52889    3626.0554    16117.588 
    2300    -254711.7    55.697063      -254656    272.19913    3673.8755    16117.588 
    2400   -254711.23    55.347737   -254655.88    270.49193    3651.3401    16117.588 
    2500   -254711.66    56.236019   -254655.42    274.83309    3685.0026    16117.588 
    2600   -254711.76    56.406548   -254655.35    275.66648    3697.1828    16117.588 
    2700   -254712.13    56.410138   -254655.72    275.68403    3696.0853    16117.588 
    2800   -254712.12    54.381985   -254657.73    265.77217    3561.7824    16117.588 
    2900    -254711.7    54.728663   -254656.97    267.46643    3585.0086    16117.588 
    3000   -254711.44    56.844518    -254654.6    277.80691    3725.4711    16117.588 
    3100   -254711.12    57.180196   -254653.94    279.44741    3747.8232    16117.588 
    3200   -254711.45    55.986356   -254655.46    273.61295    3668.7233    16117.588 
    3300   -254712.64      55.9426    -254656.7    273.39911     3664.591    16117.588 
    3400   -254713.85    56.622757   -254657.23    276.72313    3737.2659    16117.588 
    3500   -254712.34    55.764157   -254656.58    272.52703    3709.3717    16117.588 
    3600   -254712.87    58.158824   -254654.71    284.23009    3813.3247    16117.588 
    3700    -254711.3    57.828945   -254653.47    282.61793    3889.4282    16117.588 
    3800   -254710.16    54.715111   -254655.44     267.4002    3584.2334    16117.588 
    3900   -254712.09    55.367598   -254656.72    270.58899    3628.3298    16117.588 
    4000   -254712.67    55.891753   -254656.78    273.15061    3662.6481    16117.588 
    4100   -254710.97    56.477455   -254654.49    276.01302    3701.3684    16117.588 
    4200   -254710.87     58.47804    -254652.4    285.79015    3884.0451    16117.588 
    4300   -254709.36    55.560348    -254653.8    271.53099     3640.483    16117.588 
    4400    -254712.8    57.319872   -254655.48    280.13002    3757.3452    16117.588 
    4500   -254711.54    55.650052   -254655.89    271.96938    3646.9163    16117.588 
    4600   -254710.76    55.420891   -254655.34    270.84945    3630.8692    16117.588 
    4700   -254709.46    54.939207   -254654.53    268.49539    3633.6078    16117.588 
    4800   -254711.04    56.973862   -254654.07    278.43902    3733.8007    16117.588 
    4900   -254711.16    55.866945    -254655.3    273.02937    3660.3897    16117.588 
    5000   -254713.65    55.000857   -254658.65    268.79668    3627.9006    16117.588 
    5100   -254714.06    55.170215   -254658.89    269.62436    3614.8243    16117.588 
    5200   -254714.42    56.448657   -254657.97    275.87228    3699.4754    16117.588 
    5300    -254712.7    56.328049   -254656.37    275.28285    3691.5558    16117.588 
    5400   -254710.99    56.323492   -254654.66    275.26058    3690.2664    16117.588 
    5500   -254712.83    58.435798   -254654.39    285.58371     3831.687    16117.588 
    5600   -254712.25    56.764693   -254655.48    277.41679    3720.5883    16117.588 
    5700   -254713.91    57.501963   -254656.41    281.01993    3769.2127    16117.588 
    5800    -254714.9    57.270193   -254657.63    279.88724    3753.3717    16117.588 
    5900   -254713.48    54.210474   -254659.27    264.93397    3550.6468    16117.588 
    6000   -254714.64    55.248745   -254659.39    270.00814     3619.136    16117.588 
    6100    -254713.5    56.258019   -254657.24     274.9406    3686.1867    16117.588 
    6200   -254713.03    57.101124   -254655.93    279.06097     3741.937    16117.588 
    6300   -254712.53    56.410734   -254656.12    275.68694    3696.5005    16117.588 
    6400   -254713.41     55.63083   -254657.78    271.87545    3728.8887    16117.588 
    6500   -254713.35    53.322005   -254660.03     260.5919    3491.7822    16117.588 
    6600   -254715.18    55.003219   -254660.18    268.80823    3603.1997    16117.588 
    6700   -254713.91     56.82114   -254657.09    277.69265    3722.7904    16117.588 
    6800   -254712.55    56.457985   -254656.09    275.91786    3699.2731    16117.588 
    6900   -254711.35     54.90964   -254656.44    268.35089    3596.5076    16117.588 
    7000   -254713.71     57.33077   -254656.38    280.18328    3756.3252    16117.588 
    7100   -254712.97    57.575706   -254655.39    281.38032    3772.6127    16117.588 
    7200   -254712.06    55.935924   -254656.12    273.36648    3664.0941    16117.588 
    7300   -254714.57    56.180101   -254658.39    274.55981    3680.5852    16117.588 
    7400   -254714.28    55.122883   -254659.16    269.39304    3641.2897    16117.588 
    7500   -254714.25    57.276651   -254656.97     279.9188    3752.7349    16117.588 
    7600   -254713.37    57.423799   -254655.94    280.63793    3761.9581    16117.588 
    7700   -254713.82    56.918432    -254656.9    278.16813    3727.6342    16117.588 
    7800   -254712.65    55.388442   -254657.26    270.69086    3655.0969    16117.588 
    7900   -254714.69    58.225522   -254656.47    284.55606    3814.8001    16117.588 
    8000    -254712.6    58.940936   -254653.66    288.05238    3861.8864    16117.588 
    8100   -254711.17    57.242775   -254653.93    279.75324    3749.5142    16117.588 
    8200   -254713.06    56.897437   -254656.16    278.06553    3725.8349    16117.588 
    8300      -254714    57.129854   -254656.87    279.20138    3742.4362    16117.588 
    8400   -254713.91    57.120988   -254656.79    279.15805    3741.3181    16117.588 
    8500   -254714.16    55.693926   -254658.46    272.18381     3647.144    16117.588 
    8600    -254714.9    55.838539   -254659.06    272.89055    3656.0122    16117.588 
    8700   -254715.88     56.89761   -254658.98    278.06637    3726.1412    16117.588 
    8800   -254714.73    58.304941   -254656.42    284.94419    3818.5012    16117.588 
    8900   -254713.43    58.170547   -254655.26    284.28739    3810.2858    16117.588 
    9000   -254714.94    57.952455   -254656.98    283.22155    3795.6513    16117.588 
    9100   -254715.53    56.742177   -254658.79    277.30675    3788.3587    16117.588 
    9200   -254715.91    56.704355    -254659.2    277.12191    3712.4377    16117.588 
    9300   -254714.47    55.664129   -254658.81    272.03818    3643.6915    16117.588 
    9400   -254712.26    55.648742   -254656.61    271.96298      3642.72    16117.588 
    9500   -254714.76    60.096252   -254654.67    293.69857     3937.836    16117.588 
    9600   -254713.32    57.085734   -254656.24    278.98576    3739.5383    16117.588 
    9700   -254715.15    57.586624   -254657.57    281.43368    3796.9834    16117.588 
    9800   -254715.66    56.479873   -254659.18    276.02484    3698.9293    16117.588 
    9900   -254714.06     54.35938    -254659.7     265.6617    3558.5325    16117.588 
   10000   -254715.47    57.352499   -254658.12    280.28948    3756.9718    16117.588 
   10100   -254714.05    57.313143   -254656.74    280.09714    3754.0022    16117.588 
   10200   -254712.29    56.191917    -254656.1    274.61755     3680.102    16117.588 
   10300   -254713.88    57.869854   -254656.01    282.81786    3790.4687    16117.588 
   10400   -254712.71    57.587711   -254655.12    281.43899    3772.0297    16117.588 
   10500      -254713    56.861116   -254656.14    277.88802    3724.3902    16117.588 
   10600   -254713.92    55.208883   -254658.71    269.81333    3614.2858    16117.588 
   10700   -254714.06    54.144988   -254659.91    264.61394    3584.0126    16117.588 
   10800   -254714.99    56.111825   -254658.88    274.22613    3674.2048    16117.588 
   10900   -254713.81       57.386   -254656.42     280.4532    3758.3057    16117.588 
   11000   -254712.27    56.883601   -254655.38    277.99791    3725.0837    16117.588 
   11100   -254712.63    54.706025   -254657.93     267.3558    3580.7728    16117.588 
   11200   -254715.04    55.153571   -254659.89    269.54302    3610.1498    16117.588 
   11300   -254716.11    56.708829    -254659.4    277.14378    3766.4999    16117.588 
   11400   -254715.73    56.663065   -254659.07    276.92012    3710.6134    16117.588 
   11500   -254714.65    55.245289   -254659.41    269.99125    3616.3388    16117.588 
   11600   -254715.68    55.905659   -254659.78    273.21857    3661.0093    16117.588 
   11700   -254713.47    55.750324   -254657.72    272.45943    3650.9612    16117.588 
   11800   -254714.24    57.938632    -254656.3    283.15399    3796.0591    16117.588 
   11900   -254714.77    56.647541   -254658.12    276.84425    3710.3157    16117.588 
   12000   -254715.92     56.72083    -254659.2    277.20242    3742.7145    16117.588 
   12100   -254715.65    56.360328   -254659.29     275.4406    3691.2315    16117.588 
   12200   -254715.51    56.259405   -254659.25    274.94738    3683.6354    16117.588 
   12300   -254713.25    55.428949   -254657.82    270.88883    3629.3626    16117.588 
   12400   -254714.06    58.923234   -254655.14    287.96587    3861.0944    16117.588 
   12500   -254714.22    58.138395   -254656.08    284.13026    3808.8253    16117.588 
   12600   -254715.38    57.190402   -254658.19    279.49729    3746.4946    16117.588 
   12700   -254716.36    56.765192    -254659.6    277.41923    3718.1418    16117.588 
   12800   -254716.07    55.952335   -254660.12    273.44669    3663.4844    16117.588 
   12900   -254715.83    57.011584   -254658.82    278.62338    3732.9739    16117.588 
   13000   -254715.67    58.741563   -254656.93    287.07802     3902.315    16117.588 
   13100   -254714.32    57.900286   -254656.42    282.96659    3792.4499    16117.588 
   13200   -254714.85    55.201947   -254659.64    269.77943    3613.1149    16117.588 
   13300    -254715.6    54.445199   -254661.16    266.08111    3563.1643    16117.588 
   13400   -254714.39    54.661165   -254659.73    267.13656     3577.232    16117.588 
   13500   -254716.33    58.154237   -254658.17    284.20768    3809.0353    16117.588 
   13600    -254714.6    57.653881   -254656.94    281.76237    3833.1618    16117.588 
   13700   -254715.86    57.622958   -254658.24    281.61125    3798.5618    16117.588 
   13800   -254718.28    56.104672   -254662.17    274.19117    3673.0172    16117.588 
   13900   -254718.51    55.978793   -254662.53    273.57599    3664.6801    16117.588 
   14000   -254717.49    56.265092   -254661.22    274.97517    3683.4607    16117.588 
   14100   -254717.12    56.954702   -254660.16    278.34539    3729.6497    16117.588 
   14200    -254716.2    56.985651   -254659.22    278.49664    3731.3714    16117.588 
   14300   -254714.09    55.044062   -254659.05    269.00783    3602.4348    16117.588 
   14400   -254716.91    56.577365   -254660.33    276.50129    3704.9566    16117.588 
   14500   -254718.11    55.630365   -254662.48    271.87317    3697.8508    16117.588 
   14600   -254718.85    56.493125   -254662.36     276.0896    3731.1349    16117.588 
   14700   -254718.26    57.085396   -254661.18    278.98411    3739.7349    16117.588 
   14800   -254715.05    56.598097   -254658.45    276.60261    3782.8396    16117.588 
   14900   -254714.93    57.343167   -254657.59    280.24387    3756.4871    16117.588 
   15000   -254714.84    57.061937   -254657.77    278.86946    3761.8258    16117.588 
   15100   -254714.91    55.689945   -254659.22    272.16435    3646.7315    16117.588 
   15200   -254715.13    53.751495   -254661.38    262.69088    3517.5812    16117.588 
   15300   -254717.17    56.548591   -254660.62    276.36067    3703.8566    16117.588 
   15400   -254714.31    55.589565   -254658.72    271.67378    3640.2517    16117.588 
   15500    -254716.5    59.293045    -254657.2    289.77319    3885.3746    16117.588 
   15600   -254716.14    58.208205   -254657.94    284.47143    3812.4845    16117.588 
   15700   -254711.95    53.003983   -254658.95    259.03768    3467.5121    16117.588 
   15800   -254714.44    55.355641   -254659.09    270.53056    3653.4681    16117.588 
   15900   -254715.18    55.716991   -254659.47    272.29652    3647.5617    16117.588 
   16000   -254716.66    55.295571   -254661.37    270.23699    3619.1137    16117.588 
   16100   -254717.94    55.901708   -254662.04    273.19927    3659.8574    16117.588 
   16200    -254718.3    58.072732   -254660.22    283.80935    3803.0392    16117.588 
   16300   -254714.91    57.308584    -254657.6    280.07486    3751.9865    16117.588 
   16400   -254715.86    58.409602   -254657.45    285.45568    3825.1983    16117.588 
   16500   -254715.32    56.436459   -254658.88    275.81267    3694.2313    16117.588 
   16600   -254715.87      55.9035   -254659.97    273.20802    3659.8107    16117.588 
   16700   -254714.06    53.764246   -254660.29    262.75319    3517.7156    16117.588 
   16800   -254714.97    57.675352   -254657.29     281.8673    3777.1563    16117.588 
   16900   -254713.72    56.710654   -254657.01    277.15269    3712.7904    16117.588 
   17000   -254715.23    57.150864   -254658.08    279.30406    3742.6087    16117.588 
   17100   -254715.34    55.300539   -254660.04    270.26127    3674.3718    16117.588 
   17200   -254715.47    55.240534   -254660.23    269.96802    3615.6538    16117.588 
   17300   -254715.78     56.39468   -254659.39    275.60848     3742.273    16117.588 
   17400   -254712.81    57.081312   -254655.73    278.96415    3738.8149    16117.588 
   17500   -254712.44    57.339156    -254655.1    280.22427    3756.6569    16117.588 
   17600   -254714.14    57.177486   -254656.97    279.43417    3746.4743    16117.588 
   17700   -254714.28    55.357265   -254658.92     270.5385    3625.8907    16117.588 
   17800   -254717.44    57.360145   -254660.08    280.32684    3758.2551    16117.588 
   17900   -254716.18    56.116646   -254660.06    274.24969    3675.4432    16117.588 
   18000   -254715.17    56.151604   -254659.02    274.42054    3703.5329    16117.588 
   18100   -254714.19     58.89873   -254655.29    287.84612    3858.9714    16117.588 
   18200   -254712.01    55.690092   -254656.32    272.16507    3645.1327    16117.588 
   18300   -254715.64    57.402196   -254658.23    280.53235    3787.5533    16117.588 
   18400   -254714.26    54.743403   -254659.52    267.53847    3583.3379    16117.588 
   18500   -254715.09    55.395899    -254659.7    270.72731    3659.2379    16117.588 
   18600    -254715.9     57.53429   -254658.36    281.17792    3768.7039    16117.588 
   18700   -254714.71    57.818663   -254656.89    282.56768    3829.7884    16117.588 
   18800   -254714.07    57.931431   -254656.14     283.1188    3795.6808    16117.588 
   18900   -254710.37    55.951104   -254654.42    273.44067    3705.1453    16117.588 
   19000   -254710.27    57.126583   -254653.15    279.18539    3741.2511    16117.588 
   19100   -254711.57    57.232021   -254654.34    279.70068     3781.656    16117.588 
   19200   -254715.02    57.595167   -254657.43    281.47543    3773.4299    16117.588 
   19300   -254714.76    56.337504   -254658.43    275.32906    3738.8985    16117.588 
   19400   -254713.59    55.146485   -254658.45    269.50838    3611.1464    16117.588 
   19500   -254714.02    56.507684   -254657.51    276.16075    3701.0484    16117.588 
   19600   -254712.43    56.006677   -254656.42    273.71226    3691.6385    16117.588 
   19700   -254713.33    57.973327   -254655.36    283.32355    3798.7201    16117.588 
   19800   -254713.85    57.137064   -254656.71    279.23661    3742.7209    16117.588 
   19900   -254714.69    55.817916   -254658.87    272.78976    3655.8347    16117.588 
   20000   -254714.87     55.78068   -254659.09    272.60778    3693.4571    16117.588 
   20100   -254713.89    55.880092   -254658.01    273.09362    3726.8426    16117.588 
   20200   -254713.27    57.461387   -254655.81    280.82163    3764.1121    16117.588 
   20300   -254711.79    56.641553   -254655.14    276.81499    3710.0008    16117.588 
   20400   -254715.29    56.753541   -254658.54    277.36229    3718.0076    16117.588 
   20500   -254716.93      57.3347    -254659.6    280.20249    3756.4356    16117.588 
   20600   -254716.01    55.766701   -254660.25    272.53946    3652.7427    16117.588 
   20700   -254714.51    56.379649   -254658.13    275.53503    3815.8388    16117.588 
   20800   -254712.65    56.338308   -254656.31    275.33299    3691.2349    16117.588 
   20900   -254713.38    56.938323   -254656.44    278.26534    3730.5048    16117.588 
   21000   -254715.17    57.158519   -254658.01    279.34147    3744.9522    16117.588 
   21100   -254715.99    55.882564    -254660.1     273.1057      3660.63    16117.588 
   21200   -254716.67    55.496742   -254661.17    271.22014    3681.9616    16117.588 
   21300   -254717.12    54.015985    -254663.1    263.98348    3535.9608    16117.588 
   21400   -254719.04    54.781138   -254664.26    267.72289     3587.543    16117.588 
   21500   -254718.75    56.772622   -254661.98    277.45554    3719.4466    16117.588 
   21600   -254717.18    56.465906   -254660.72    275.95658    3727.2244    16117.588 
   21700   -254715.93    55.087298   -254660.84    269.21913    3607.6118    16117.588 
   21800    -254715.6    56.129779   -254659.47    274.31387    3757.1583    16117.588 
   21900   -254713.89    57.598586   -254656.29    281.49214     3773.264    16117.588 
   22000   -254715.36    59.267705   -254656.09    289.64935    3885.5897    16117.588 
   22100   -254715.07    57.540038   -254657.53      281.206    3797.5123    16117.588 
   22200   -254715.39      56.6308   -254658.76    276.76243    3734.4905    16117.588 
   22300   -254714.64    55.293055   -254659.35    270.22469    3620.3877    16117.588 
   22400   -254715.44    56.041901    -254659.4    273.88441    3670.8665    16117.588 
   22500   -254716.19    57.750861   -254658.44    282.23633    3784.1472    16117.588 
   22600   -254714.29    57.944852   -254656.34    283.18439     3833.215    16117.588 
   22700   -254714.49    57.959983   -254656.53    283.25833    3843.1196    16117.588 
   22800   -254717.15    57.242324    -254659.9    279.75104    3797.5243    16117.588 
   22900   -254715.85    55.007135   -254660.84    268.82736    3602.1716    16117.588 
   23000   -254718.23    57.840571   -254660.39    282.67475    3789.5587    16117.588 
   23100   -254715.62    55.006574   -254660.61    268.82462    3601.8098    16117.588 
   23200   -254716.47    54.763363   -254661.71    267.63602    3613.7274    16117.588 
   23300   -254716.76    55.642328   -254661.12    271.93164    3644.5531    16117.588 
   23400   -254716.95    58.023215   -254658.92    283.56736    3802.9195    16117.588 
   23500    -254717.2    57.700117    -254659.5    281.98833    3880.6423    16117.588 
   23600   -254717.53    56.308524   -254661.22    275.18743    3775.3204    16117.588 
   23700   -254716.63    55.079351   -254661.55    269.18029    3637.8191    16117.588 
   23800   -254717.27    56.288586   -254660.98    275.08999    3687.2629    16117.588 
   23900   -254717.02    57.558329   -254659.46    281.29539    3813.3577    16117.588 
   24000   -254714.96     56.00203   -254658.96    273.68955    3668.2434    16117.588 
   24100   -254717.36    57.003748   -254660.36    278.58508    3734.1602    16117.588 
   24200   -254719.08    56.306319   -254662.77    275.17665    3730.4734    16117.588 
   24300   -254718.86    55.269136   -254663.59     270.1078    3618.9931    16117.588 
   24400   -254717.27    54.764544   -254662.51    267.64179    3585.7879    16117.588 
   24500   -254718.08    58.126135   -254659.95    284.07034    3808.4785    16117.588 
   24600   -254716.17     56.16611      -254660    274.49143    3678.4534    16117.588 
   24700   -254716.06    55.155806    -254660.9    269.55394    3612.3862    16117.588 
   24800    -254715.2     55.01834   -254660.19    268.88212    3603.1513    16117.588 
   24900   -254716.63    58.468815   -254658.16    285.74506    3832.0622    16117.588 
   25000   -254714.99    59.031247   -254655.95    288.49375      3868.95    16117.588 
   25100   -254714.41    56.791009   -254657.62     277.5454    3770.3784    16117.588 
   25200   -254716.66    58.123168   -254658.54    284.05584    3851.1469    16117.588 
   25300   -254716.33    56.061634   -254660.27    273.98084    3730.9626    16117.588 
   25400   -254716.85    55.302236   -254661.55    270.26956     3715.772    16117.588 
   25500   -254718.54    56.757917   -254661.78    277.38367    3718.4301    16117.588 
   25600   -254717.71    56.478517   -254661.23    276.01821    3730.4284    16117.588 
   25700   -254717.33    55.445911   -254661.88    270.97172    3632.1319    16117.588 
   25800   -254718.81    55.681938   -254663.13    272.12521    3648.3567    16117.588 
   25900   -254717.54    54.661765   -254662.88    267.13949    3579.9895    16117.588 
   26000   -254716.22    55.886838   -254660.34    273.12659    3660.9549    16117.588 
   26100   -254715.06    55.865631    -254659.2    273.02295    3659.3769    16117.588 
   26200   -254716.09    57.197571    -254658.9    279.53232    3748.0796    16117.588 
   26300   -254717.29     56.84487   -254660.44    277.80863     3725.034    16117.588 
   26400   -254717.27     54.11185   -254663.16    264.45199    3544.5407    16117.588 
   26500   -254719.42    55.187195   -254664.23    269.70734    3683.7774    16117.588 
   26600   -254719.16    55.961557    -254663.2    273.49176     3701.214    16117.588 
   26700    -254717.9    55.465021   -254662.44    271.06512    3633.6503    16117.588 
   26800   -254716.47    54.747466   -254661.72    267.55832    3585.9163    16117.588 
   26900   -254718.54    57.750319   -254660.79    282.23368    3785.3843    16117.588 
   27000   -254715.43    53.616031   -254661.81    262.02885    3511.4486    16117.588 
   27100   -254719.61    56.158027   -254663.45    274.45193     3680.354    16117.588 
   27200   -254719.27     54.49929   -254664.78    266.34546    3570.5839    16117.588 
   27300   -254718.33    56.390616   -254661.94    275.58862    3695.4234    16117.588 
   27400   -254718.07    57.089808   -254660.98    279.00567    3834.5476    16117.588 
   27500   -254716.88     55.13409   -254661.75    269.44781    3612.9956    16117.588 
   27600   -254717.94    57.078852   -254660.86    278.95212    3740.4559    16117.588 
   27700    -254717.6    58.758726   -254658.85     287.1619    3900.5702    16117.588 
   27800   -254715.36    57.239781   -254658.12    279.73861    3751.2273    16117.588 
   27900   -254716.34    56.209489   -254660.13    274.70343    3683.6374    16117.588 
   28000   -254718.94    56.476638   -254662.46    276.00902    3701.7312    16117.588 
   28100   -254718.26    55.372718   -254662.89    270.61402    3627.3888    16117.588 
   28200   -254717.05    54.956736    -254662.1    268.58105    3599.1763    16117.588 
   28300   -254717.56    58.078122   -254659.48     283.8357    3867.1569    16117.588 
   28400   -254715.92     56.03904   -254659.88    273.87042     3671.537    16117.588 
   28500   -254717.73    56.697715   -254661.03    277.08946    3714.8239    16117.588 
   28600   -254719.19     56.58187   -254662.61    276.52331    3707.5972    16117.588 
   28700    -254719.4    55.533868   -254663.87    271.40158    3637.9147    16117.588 
   28800   -254718.69     54.33665   -254664.35    265.55061    3558.9068    16117.588 
   28900   -254718.33    53.861668   -254664.46    263.22931    3578.7392    16117.588 
   29000   -254717.33    55.679298   -254661.65    272.11231    3647.3567    16117.588 
   29100   -254718.13    57.602195   -254660.53    281.50978    3775.6235    16117.588 
   29200   -254717.46     56.80551   -254660.66    277.61626    3778.1001    16117.588 
   29300   -254718.59    56.774729   -254661.82    277.46584    3720.4461    16117.588 
   29400   -254718.29    55.766123   -254662.53    272.53664    3652.9797    16117.588 
   29500   -254719.23    55.390225   -254663.84    270.69958    3628.1004    16117.588 
   29600   -254719.78    55.329154   -254664.45    270.40111    3624.2897    16117.588 
   29700   -254716.32    54.442121   -254661.88    266.06606     3608.362    16117.588 
   29800    -254717.5    57.211955   -254660.29    279.60262    3783.6801    16117.588 
   29900   -254718.07     57.17651    -254660.9    279.42939    3747.0529    16117.588 
   30000   -254717.24    54.729092   -254662.51    267.46853    3584.9874    16117.588 
   30100   -254716.72    54.937499   -254661.78    268.48704    3598.3562    16117.588 
   30200    -254716.8    58.124707   -254658.68    284.06336    3842.7931    16117.588 
   30300   -254716.38    57.137265   -254659.25     279.2376    3743.8189    16117.588 
   30400   -254717.34     56.83027   -254660.51    277.73727    3804.0803    16117.588 
   30500   -254717.62    55.438119   -254662.18    270.93364    3702.4824    16117.588 
   30600   -254719.37    55.915897   -254663.46    273.26861    3663.7747    16117.588 
   30700    -254717.9    54.821186   -254663.07    267.91861    3618.4691    16117.588 
   30800   -254717.64    55.564773   -254662.08    271.55262    3640.2438    16117.588 
   30900   -254718.11    56.489447   -254661.62    276.07162     3700.994    16117.588 
   31000   -254718.16    56.730108   -254661.43    277.24777    3766.4207    16117.588 
   31100   -254718.49    56.959197   -254661.53    278.36735    3731.8081    16117.588 
   31200   -254719.38     55.90653   -254663.48    273.22283    3662.6881    16117.588 
   31300   -254719.64    55.189449   -254664.45    269.71836     3614.155    16117.588 
   31400   -254718.18    55.892353   -254662.28    273.15355    3660.5943    16117.588 
   31500   -254717.59     57.17118   -254660.42    279.40335    3745.7124    16117.588 
   31600   -254716.84    56.427772   -254660.41    275.77021    3697.5111    16117.588 
   31700   -254717.95    57.027608   -254660.93    278.70169    3736.8332    16117.588 
   31800   -254717.97    55.649655   -254662.32    271.96744    3645.8079    16117.588 
   31900   -254717.96    53.562867   -254664.39    261.76903    3507.9102    16117.588 
   32000   -254719.02    54.765881   -254664.26    267.64832    3587.4417    16117.588 
   32100   -254718.43    57.261571   -254661.17     279.8451    3778.7899    16117.588 
   32200   -254717.37    57.117487   -254660.26    279.14094     3743.512    16117.588 
   32300   -254716.96    55.894849   -254661.06    273.16574    3661.8823    16117.588 
   32400   -254716.95    56.921338   -254660.03    278.18233    3730.0863    16117.588 
   32500    -254715.1    57.472821   -254657.63    280.87751    3765.8429    16117.588 
   32600   -254714.76    58.900122   -254655.86    287.85292    3859.9334    16117.588 
   32700   -254713.83      55.3541   -254658.47    270.52303     3625.513    16117.588 
   32800   -254714.81    54.658949   -254660.15    267.12573    3669.9298    16117.588 
   32900   -254716.53    56.814901   -254659.72    277.66216    3722.2263    16117.588 
   33000   -254716.64    57.070635   -254659.57    278.91197    3739.5878    16117.588 
   33100   -254715.54    56.110435   -254659.43    274.21934    3708.6713    16117.588 
   33200   -254715.74    56.217786   -254659.52    274.74398    3710.3772    16117.588 
   33300    -254715.2    54.917223   -254660.28    268.38795    3622.6489    16117.588 
   33400   -254718.67    56.595734   -254662.08    276.59106     3708.266    16117.588 
   33500   -254717.52    54.461976   -254663.06     266.1631    3565.9898    16117.588 
   33600   -254717.11    55.843526   -254661.27    272.91492    3658.2093    16117.588 
   33700   -254716.77    58.084894   -254658.69    283.86879    3829.8099    16117.588 
   33800   -254715.48    56.486143   -254658.99    276.05548    3817.2046    16117.588 
   33900   -254714.88    55.128157   -254659.75    269.41881    3611.0413    16117.588 
   34000   -254716.26    55.076075   -254661.18    269.16428    3607.2682    16117.588 
   34100   -254717.29    54.523206   -254662.77    266.46233    3611.1509    16117.588 
   34200   -254718.79    55.216605   -254663.58    269.85107    3617.4377    16117.588 
   34300   -254716.71    55.850911   -254660.86    272.95101    3698.5325    16117.588 
   34400   -254716.84    57.044826    -254659.8    278.78584     3739.137    16117.588 
   34500   -254716.17    56.177382   -254659.99    274.54652    3715.8307    16117.588 
   34600   -254719.39    57.102923   -254662.29    279.06977    3743.3105    16117.588 
   34700   -254719.08    54.862503   -254664.22    268.12052    3594.0928    16117.588 
   34800   -254718.17    54.601778   -254663.57    266.84633    3624.6439    16117.588 
   34900   -254716.41    54.343458   -254662.07    265.58388    3559.2418    16117.588 
   35000   -254718.13    57.261358   -254660.87    279.84406    3754.4116    16117.588 
   35100   -254716.24    56.111097   -254660.13    274.22258    3677.7688    16117.588 
   35200   -254714.99    57.037313   -254657.96    278.74912    3764.5786    16117.588 
   35300   -254713.78    58.568684   -254655.21    286.23314    3840.4492    16117.588 
   35400   -254714.16    57.893205   -254656.27    282.93198    3795.5979    16117.588 
   35500   -254714.78    56.599931   -254658.18    276.61157     3708.389    16117.588 
   35600   -254715.55    56.001101   -254659.55    273.68501     3669.263    16117.588 
   35700   -254716.82    56.358677   -254660.46    275.43253    3728.7957    16117.588 
   35800   -254716.87    56.071037    -254660.8     274.0268    3727.5121    16117.588 
   35900   -254718.46    55.553046   -254662.91     271.4953     3681.421    16117.588 
   36000   -254718.91    54.684776   -254664.23    267.25195    3583.0401    16117.588 
   36100   -254720.16    57.215852   -254662.94    279.62166    3750.4317    16117.588 
   36200   -254718.01    57.046152   -254660.96    278.79232    3739.1505    16117.588 
   36300   -254717.84    57.660518   -254660.18    281.79481    3780.0676    16117.588 
   36400   -254717.07    56.237512   -254660.83    274.84038    3685.2474    16117.588 
   36500    -254718.2    56.774147   -254661.43    277.46299    3721.3879    16117.588 
   36600   -254716.82    55.583575   -254661.24     271.6445    3741.2292    16117.588 
   36700   -254717.25    58.811212   -254658.44    287.41841    3856.9984    16117.588 
   36800   -254714.34    56.963406   -254657.38    278.38793    3734.0355    16117.588 
   36900   -254716.72    56.904547   -254659.82    278.10027    3729.9389    16117.588 
   37000      -254716    55.426897   -254660.58     270.8788    3631.6057    16117.588 
   37100   -254715.36     54.81082   -254660.55    267.86795    3637.9235    16117.588 
   37200   -254717.11    57.051508   -254660.06    278.81849    3739.3457    16117.588 
   37300    -254715.8    56.285557   -254659.52    275.07518    3689.1489    16117.588 
   37400      -254717    57.400711    -254659.6    280.52509    3762.7038    16117.588 
   37500   -254716.91    54.474737   -254662.43    266.22546    3568.2262    16117.588 
   37600   -254718.63    56.230915    -254662.4    274.80814    3685.0407    16117.588 
   37700   -254717.58    55.719728   -254661.86     272.3099    3684.9625    16117.588 
   37800   -254716.14    56.775864   -254659.36    277.47138    3759.4941    16117.588 
   37900   -254716.42    57.944245   -254658.48    283.18142     3836.702    16117.588 
   38000    -254716.8    56.792377      -254660    277.55208    3722.0263    16117.588 
   38100   -254717.95    57.245397    -254660.7    279.76605    3752.3103    16117.588 
   38200   -254716.56    57.032387   -254659.53    278.72504    3783.1849    16117.588 
   38300   -254714.37     55.09975   -254659.27    269.27999    3611.1972    16117.588 
   38400   -254715.49     57.19531   -254658.29    279.52127    3792.7421    16117.588 
   38500   -254714.99     58.45449   -254656.54    285.67506    3832.9265    16117.588 
   38600   -254713.38    58.712612   -254654.67    286.93653    3876.8117    16117.588 
   38700   -254714.29    57.984446   -254656.31    283.37789      3802.39    16117.588 
   38800   -254713.26    54.730731   -254658.53    267.47654    3586.6203    16117.588 
   38900   -254714.58    56.062949   -254658.52    273.98727    3738.9089    16117.588 
   39000   -254712.89    55.669039   -254657.22    272.06218    3648.9002    16117.588 
   39100   -254711.97    56.902172   -254655.06    278.08867    3730.6947    16117.588 
   39200   -254712.84    57.541163    -254655.3     281.2115    3817.1775    16117.588 
   39300   -254715.58    56.574138   -254659.01    276.48552    3708.5258    16117.588 
   39400   -254715.33     55.01646   -254660.31    268.87293    3648.2077    16117.588 
   39500   -254717.05    56.475496   -254660.58    276.00344    3702.8922    16117.588 
   39600   -254718.32    57.238738   -254661.08    279.73351    3753.7121    16117.588 
   39700   -254716.35    56.019413   -254660.33    273.77451    3672.0156    16117.588 
   39800   -254715.86    58.082324   -254657.78    283.85623    3843.8246    16117.588 
   39900   -254714.65     57.77789   -254656.87    282.36842    3789.2187    16117.588 
   40000   -254715.22    56.861858   -254658.35    277.89165     3727.691    16117.588 
   40100   -254716.05    55.940999   -254660.11    273.39128    3666.1322    16117.588 
   40200   -254716.38    56.238104   -254660.14    274.84328    3687.5868    16117.588 
   40300   -254717.36    57.549176   -254659.81    281.25066    3774.2161    16117.588 
   40400   -254715.61    56.517121    -254659.1    276.20687     3705.676    16117.588 
   40500   -254715.28    57.801715   -254657.48    282.48486    3790.3757    16117.588 
   40600   -254714.91    57.324928   -254657.58    280.15473    3758.2579    16117.588 
   40700   -254715.97    55.640981   -254660.33    271.92505    3647.3747    16117.588 
   40800    -254719.1    57.349755   -254661.75    280.27607    3760.9993    16117.588 
   40900   -254718.79    57.298218   -254661.49     280.0242    3757.8969    16117.588 
   41000   -254718.86    57.841615   -254661.02    282.67985    3793.4765    16117.588 
   41100   -254717.95     56.30869   -254661.64    275.18824    3692.0119    16117.588 
   41200   -254719.16    55.489955   -254663.67    271.18697    3637.2463    16117.588 
   41300   -254717.48    54.510855   -254662.97    266.40197    3572.0651    16117.588 
   41400   -254716.39    55.893685    -254660.5    273.16006    3664.1172    16117.588 
   41500   -254717.55    57.104517   -254660.45    279.07755     3744.043    16117.588 
   41600   -254717.53    56.576939   -254660.95    276.49921    3709.7709    16117.588 
   41700   -254719.53    57.424109    -254662.1    280.63944    3765.7296    16117.588 
   41800   -254719.13    54.873501   -254664.25    268.17427    3646.5539    16117.588 
   41900   -254717.68    54.176321    -254663.5    264.76706    3549.8164    16117.588 
   42000   -254717.54     56.68184   -254660.86    277.01187    3739.2939    16117.588 
   42100   -254716.16    55.926241   -254660.23    273.31916    3665.7254    16117.588 
   42200   -254716.67    55.859422   -254660.81     272.9926    3661.5926    16117.588 
   42300    -254717.9    56.564911   -254661.34    276.44043    3708.9939    16117.588 
   42400   -254720.26    56.442863   -254663.82    275.84396    3700.6202    16117.588 
   42500   -254718.06    54.059141      -254664    264.19439    3626.1593    16117.588 
   42600   -254716.64    55.370586   -254661.27     270.6036    3629.5926    16117.588 
   42700   -254716.86    56.188454   -254660.67    274.60063    3720.5194    16117.588 
   42800   -254716.88    56.350451   -254660.53    275.39233    3694.4916    16117.588 
   42900   -254715.61    55.310798   -254660.29     270.3114    3625.8398    16117.588 
   43000   -254715.43    57.657419   -254657.77    281.77966    3781.5604    16117.588 
   43100   -254716.68    58.589718   -254658.09    286.33594    3843.1749    16117.588 
   43200   -254717.58    56.566472   -254661.02    276.44806    3708.6719    16117.588 
   43300   -254717.73    55.194556   -254662.53    269.74331    3617.5857    16117.588 
   43400    -254720.9    57.340457   -254663.56    280.23063    3759.5815    16117.588 
   43500   -254719.82    55.406317   -254664.41    270.77822    3631.4066    16117.588 
   43600   -254717.92    53.988285   -254663.93     263.8481     3537.567    16117.588 
   43700    -254718.5     57.66551   -254660.83     281.8192    3781.5831    16117.588 
   43800   -254716.28    56.079733    -254660.2     274.0693    3675.4873    16117.588 
   43900   -254716.51    56.474556   -254660.04    275.99885    3702.8474    16117.588 
   44000   -254717.79    57.782551   -254660.01     282.3912    3847.6668    16117.588 
   44100   -254718.09    56.644585   -254661.44    276.82981    3742.1079    16117.588 
   44200   -254717.67    55.195362   -254662.47    269.74725    3618.0611    16117.588 
   44300   -254717.05    53.884025   -254663.16    263.33857    3530.7462    16117.588 
   44400   -254717.38    57.009881   -254660.37    278.61505    3738.2593    16117.588 
   44500   -254715.85    57.051659    -254658.8    278.81923    3741.4077    16117.588 
   44600   -254717.21    58.047069   -254659.16    283.68393    3806.8027    16117.588 
   44700   -254716.74    55.593484   -254661.15    271.69293    3644.3744    16117.588 
   44800   -254718.85    55.944095    -254662.9    273.40641    3667.6358    16117.588 
   44900   -254719.18    56.381402    -254662.8    275.54359    3793.7399    16117.588 
   45000   -254718.34    56.256676   -254662.09    274.93404    3688.9631    16117.588 
   45100   -254718.18    56.277088    -254661.9     275.0338    3690.0312    16117.588 
   45200   -254718.78    57.249146   -254661.53    279.78438    3755.0038    16117.588 
   45300   -254715.99    56.396675   -254659.59    275.61824    3698.4426    16117.588 
   45400   -254715.13    57.367121   -254657.76    280.36094    3762.6345    16117.588 
   45500   -254716.06    57.180387   -254658.88    279.44834    3790.4351    16117.588 
   45600   -254716.06    55.702201   -254660.36    272.22424    3652.4787    16117.588 
   45700   -254715.37    55.090137   -254660.28    269.23301    3612.0478    16117.588 
   45800   -254715.95    57.192163   -254658.76    279.50589    3750.3155    16117.588 
   45900   -254715.08    57.137782   -254657.94    279.24013    3747.7654    16117.588 
   46000   -254716.75    58.035863   -254658.71    283.62917    3806.8077    16117.588 
   46100    -254717.4    55.612495   -254661.79    271.78584    3671.8306    16117.588 
   46200   -254718.65    55.258063   -254663.39    270.05368    3623.4227    16117.588 
   46300   -254719.37    56.126544   -254663.25    274.29807    3679.4493    16117.588 
   46400   -254718.12    56.333857   -254661.79    275.31124    3693.5396    16117.588 
   46500   -254718.57    58.849944   -254659.72    287.60769    3861.3863    16117.588 
   46600   -254717.62    58.543521   -254659.08    286.11016     3841.134    16117.588 
   46700   -254716.92    55.183187   -254661.73    269.68775     3618.278    16117.588 
   46800   -254717.85    54.489507   -254663.36    266.29764    3572.8067    16117.588 
   46900   -254718.32    54.850984   -254663.47    268.06423    3596.8209    16117.588 
   47000   -254716.17     54.60102   -254661.56    266.84262    3656.4007    16117.588 
   47100   -254716.26    55.857182   -254660.41    272.98166    3662.8025    16117.588 
   47200    -254715.9    55.510021   -254660.39    271.28503    3640.1869    16117.588 
   47300   -254716.49    55.935862   -254660.55    273.36618    3667.0865    16117.588 
   47400   -254716.28      54.7284   -254661.55    267.46515    3587.5841    16117.588 
   47500   -254717.05    55.945216    -254661.1    273.41189    3706.2349    16117.588 
   47600   -254716.08    56.306725   -254659.78    275.17864    3691.6626    16117.588 
   47700   -254717.47    59.062796    -254658.4    288.64793    3875.4348    16117.588 
   47800   -254716.12    56.531347   -254659.59    276.27639    3740.0182    16117.588 
   47900   -254717.15    55.110149   -254662.04    269.33081    3612.5778    16117.588 
   48000   -254718.55    56.055426   -254662.49     273.9505    3675.5471    16117.588 
   48100   -254716.99    56.013558   -254660.98    273.74589    3672.4431    16117.588 
   48200   -254716.05    55.285219   -254660.76     270.1864    3664.1042    16117.588 
   48300   -254716.52    56.374786   -254660.14    275.51126    3697.0171    16117.588 
   48400   -254718.19    58.128421   -254660.06    284.08151    3813.2302    16117.588 
   48500   -254716.41      56.1357   -254660.28    274.34281    3681.8822    16117.588 
   48600   -254715.86    55.199961   -254660.66    269.76973    3647.0677    16117.588 
   48700   -254716.62    55.704069   -254660.91    272.23337    3653.1544    16117.588 
   48800   -254717.02     57.05709   -254659.96    278.84577    3742.9292    16117.588 
   48900   -254714.66    54.704997   -254659.95    267.35077    3586.7639    16117.588 
   49000   -254715.79     56.68465   -254659.11    277.02561    3718.2819    16117.588 
   49100   -254715.89    56.915821   -254658.98    278.15537    3732.7033    16117.588 
   49200   -254716.63    56.379333   -254660.25    275.53348    3695.8709    16117.588 
   49300   -254716.77    55.059271   -254661.71    269.08216    3609.2255    16117.588 
   49400   -254716.67    55.275194    -254661.4     270.1374    3692.3422    16117.588 
   49500   -254714.54    56.139593    -254658.4    274.36184     3681.895    16117.588 
   49600   -254714.96    56.715505   -254658.25     277.1764    3837.7043    16117.588 
   49700   -254714.82    56.031113   -254658.79    273.83168      3674.71    16117.588 
   49800   -254716.39    55.666305   -254660.73    272.04882     3650.075    16117.588 
   49900   -254717.12    55.054716   -254662.07     269.0599    3609.2469    16117.588 
   50000    -254714.8    54.833965   -254659.97    267.98106    3594.6997    16117.588 
   50100   -254715.83    58.782375   -254657.04    287.27748    3856.1181    16117.588 
   50200   -254715.31    57.575623   -254657.74    281.37991    3801.8982    16117.588 
   50300   -254715.66    55.645343   -254660.01    271.94637    3648.3746    16117.588 
   50400   -254717.23    55.997805   -254661.23     273.6689    3672.2481    16117.588 
   50500   -254718.18    57.443353   -254660.74    280.73349     3767.655    16117.588 
   50600   -254716.09    57.560942   -254658.53    281.30817    3775.4986    16117.588 
   50700   -254712.43    56.583007   -254655.84    276.52886    3710.6432    16117.588 
   50800   -254713.46    57.890956   -254655.57    282.92099    3797.0392    16117.588 
   50900   -254714.14    56.890555   -254657.25     278.0319    3796.2591    16117.588 
   51000   -254714.27    55.840266   -254658.43    272.89899    3660.8493    16117.588 
   51100   -254714.96    55.560704    -254659.4    271.53273    3642.5048    16117.588 
   51200   -254715.98    56.445886   -254659.54    275.85874    3701.6719    16117.588 
   51300   -254715.24     55.24743   -254659.99    270.00172    3622.0472    16117.588 
   51400   -254715.68     55.13621   -254660.55    269.45817    3614.8956    16117.588 
   51500   -254717.45    55.862727   -254661.59    273.00876    3663.5006    16117.588 
   51600   -254716.24    55.340255    -254660.9    270.45536    3628.0932    16117.588 
   51700   -254715.45    56.918734   -254658.53    278.16961    3732.9673    16117.588 
   51800   -254714.98    57.519096   -254657.46    281.10366    3773.0187    16117.588 
   51900   -254715.37    57.383313   -254657.98    280.44007     3763.408    16117.588 
   52000    -254716.5    55.636334   -254660.87    271.90234     3647.691    16117.588 
   52100   -254716.49    54.021488   -254662.47    264.01037    3540.9776    16117.588 
   52200   -254717.95     55.98135   -254661.97    273.58849    3670.7828    16117.588 
   52300   -254715.34    55.221831   -254660.11    269.87661    3668.6683    16117.588 
   52400   -254715.58    57.305624   -254658.27    280.06039    3782.6929    16117.588 
   52500   -254715.81     56.93524   -254658.88    278.25028    3732.9578    16117.588 
   52600   -254716.77    55.287412   -254661.48    270.19711    3623.6696    16117.588 
   52700   -254717.55     54.62212   -254662.93    266.94574    3580.8467    16117.588 
   52800   -254718.29    56.706245   -254661.58    277.13114    3718.3056    16117.588 
   52900    -254716.1    56.401629    -254659.7    275.64244    3698.1758    16117.588 
   53000   -254714.54    54.956674   -254659.58    268.58075    3601.5845    16117.588 
   53100   -254714.76    55.532717   -254659.23    271.39595    3640.3178    16117.588 
   53200   -254714.61    56.370278   -254658.24    275.48923    3695.6031    16117.588 
   53300   -254714.53    58.801949   -254655.73    287.37314    3856.3038    16117.588 
   53400   -254713.37    55.449849   -254657.92    270.99096     3633.216    16117.588 
   53500   -254716.41     57.52007   -254658.89    281.10842    3770.4621    16117.588 
   53600   -254715.82    55.996538   -254659.82    273.66271    3669.1766    16117.588 
   53700   -254715.54    55.775529   -254659.76    272.58261    3656.0413    16117.588 
   53800      -254714    56.409298   -254657.59    275.67993    3698.1816    16117.588 
   53900   -254713.53    58.071459   -254655.46    283.80313    3807.3812    16117.588 
   54000   -254713.76    56.834522   -254656.92    277.75805    3726.0876    16117.588 
   54100   -254714.68    55.851779   -254658.83    272.95525    3660.8396    16117.588 
   54200   -254715.27     55.67256    -254659.6    272.07939    3648.2748    16117.588 
   54300   -254714.07     55.38701   -254658.69    270.68386     3630.272    16117.588 
   54400   -254713.16    56.644272   -254656.52    276.82828    3741.2909    16117.588 
   54500   -254714.79    60.547856   -254654.24    295.90562    3972.2191    16117.588 
   54600    -254714.9    57.815999   -254657.09    282.55467    3791.5523    16117.588 
   54700   -254715.38    56.808272   -254658.57    277.62976    3725.5876    16117.588 
   54800   -254718.02    57.565184   -254660.46     281.3289    3775.8366    16117.588 
   54900   -254718.41    56.591603   -254661.82    276.57087    3707.8163    16117.588 
   55000   -254717.46    55.107263   -254662.35     269.3167    3610.6417    16117.588 
   55100   -254717.97    57.174084    -254660.8    279.41754    3747.7239    16117.588 
   55200   -254716.33    57.670731   -254658.66    281.84472    3782.2496    16117.588 
   55300    -254713.9    55.837426   -254658.06    272.88511     3659.951    16117.588 
   55400    -254715.7    56.517799   -254659.18    276.21018    3705.2608    16117.588 
   55500   -254716.37    57.178457   -254659.19    279.43891    3749.5473    16117.588 
   55600   -254716.17    56.799803   -254659.37    277.58838    3724.7715    16117.588 
   55700   -254715.83    56.597696   -254659.23    276.60065    3711.4424    16117.588 
   55800   -254715.33    56.874778   -254658.46    277.95479     3730.155    16117.588 
   55900   -254715.36    56.962316    -254658.4     278.3826    3735.7092    16117.588 
   56000   -254714.75    57.074209   -254657.67    278.92944    3742.5955    16117.588 
   56100   -254715.47    56.451587   -254659.02     275.8866    3701.4057    16117.588 
   56200   -254716.63    55.236955   -254661.39    269.95053    3620.4163    16117.588 
   56300    -254716.1    55.194798    -254660.9     269.7445    3712.8281    16117.588 
   56400   -254715.68    55.727343   -254659.95    272.34712    3653.4498    16117.588 
   56500   -254715.22    57.805397   -254657.42    282.50285    3821.8789    16117.588 
   56600   -254715.78    58.004548   -254657.78    283.47613    3804.1332    16117.588 
   56700   -254715.26     56.10036   -254659.16     274.1701    3678.9539    16117.588 
   56800    -254714.5    54.796972    -254659.7    267.80027    3592.3585    16117.588 
   56900   -254716.08    56.236175   -254659.85    274.83385    3687.9085    16117.588 
   57000   -254715.44    54.512483   -254660.92    266.40993    3573.6879    16117.588 
   57100   -254717.61    55.592091   -254662.02    271.68612    3644.7822    16117.588 
   57200    -254716.8    55.054093   -254661.74    269.05685    3608.6157    16117.588 
   57300   -254717.59    58.076261   -254659.51     283.8266    3808.5034    16117.588 
   57400   -254715.59    56.791847    -254658.8    277.54949    3725.7401    16117.588 
   57500    -254716.2    57.182918   -254659.01    279.46071    3809.4202    16117.588 
   57600    -254717.2    57.511883   -254659.68    281.06841    3772.5605    16117.588 
   57700   -254717.06     55.51819   -254661.54    271.32496    3640.2635    16117.588 
   57800   -254719.39    56.691471    -254662.7    277.05894     3717.804    16117.588 
   57900   -254715.72    54.445381   -254661.27    266.08199     3567.959    16117.588 
   58000   -254715.58    56.584558      -254659    276.53644    3710.2173    16117.588 
   58100   -254715.36    56.137303   -254659.22    274.35065    3723.7502    16117.588 
   58200   -254714.96     55.84297   -254659.11     272.9122    3662.6746    16117.588 
   58300   -254715.45    56.276439   -254659.17    275.03062    3690.3829    16117.588 
   58400   -254714.27    54.813311   -254659.46    267.88012    3593.6577    16117.588 
   58500   -254715.93    57.572532   -254658.36    281.36481    3776.9696    16117.588 
   58600   -254716.27    58.459298   -254657.81    285.69855    3835.5831    16117.588 
   58700   -254715.56    55.248878   -254660.31    270.00879    3622.7098    16117.588 
   58800   -254717.99    56.177847   -254661.82    274.54879    3684.7407    16117.588 
   58900   -254715.92    54.268517   -254661.65    265.21764    3558.2661    16117.588 
   59000   -254717.13     56.70496   -254660.43    277.12487    3784.8769    16117.588 
   59100   -254714.85    57.145024   -254657.71    279.27552    3802.6646    16117.588 
   59200   -254714.77    57.782204   -254656.99     282.3895    3790.9651    16117.588 
   59300   -254715.43    57.332843   -254658.09    280.19341    3760.9372    16117.588 
   59400   -254714.88        55.31   -254659.57    270.30751    3626.4543    16117.588 
   59500   -254715.13      54.5742   -254660.55    266.71155    3577.5418    16117.588 
   59600   -254715.28    56.151875   -254659.13    274.42186     3682.653    16117.588 
   59700   -254715.17    58.043038   -254657.13    283.66423    3807.4403    16117.588 
   59800    -254712.9    56.011157   -254656.89    273.73416    3672.3905    16117.588 
   59900   -254715.47    57.079425   -254658.39    278.95493    3742.7949    16117.588 
   60000   -254714.97    55.857524   -254659.11    272.98333    3662.0469    16117.588 
   60100   -254716.07    56.679695   -254659.39    277.00139    3717.3822    16117.588 
   60200   -254716.02     56.65263   -254659.36    276.86912    3714.6412    16117.588 
   60300   -254717.07    56.043665   -254661.02    273.89303    3674.5631    16117.588 
   60400   -254716.34    54.038384    -254662.3    264.09294    3541.4296    16117.588 
   60500   -254716.56    54.821751   -254661.74    267.92137    3654.6187    16117.588 
   60600   -254715.28    56.731549   -254658.55    277.25481    3761.0699    16117.588 
   60700   -254716.94    58.198148   -254658.74    284.42228    3816.5739    16117.588 
   60800   -254715.07    54.017006   -254661.06    263.98847    3539.4481    16117.588 
   60900   -254716.12    55.414673   -254660.71    270.81906    3631.5985    16117.588 
   61000   -254714.96    55.224346   -254659.74     269.8889    3618.7932    16117.588 
   61100   -254714.11    57.014053    -254657.1    278.63544    3766.8938    16117.588 
   61200    -254712.5    56.712684   -254655.79    277.16261     3717.139    16117.588 
   61300   -254714.79    57.447312   -254657.34    280.75284    3766.4955    16117.588 
   61400   -254715.59    56.602739   -254658.99     276.6253     3710.232    16117.588 
   61500   -254715.84     56.38544   -254659.46    275.56333    3720.2201    16117.588 
   61600   -254716.58    56.681346    -254659.9    277.00946    3715.6651    16117.588 
   61700   -254714.87    54.918819   -254659.95    268.39575    3598.7024    16117.588 
   61800   -254715.65    58.576403   -254657.08    286.27086    3841.6847    16117.588 
   61900   -254714.07    57.829454   -254656.24    282.62042    3791.7866    16117.588 
   62000    -254714.9    57.198689   -254657.71    279.53778    3750.0039    16117.588 
   62100   -254712.58    53.521901   -254659.05    261.56882    3507.2465    16117.588 
   62200   -254714.98    57.338185   -254657.64    280.21952     3760.405    16117.588 
   62300   -254710.81    56.143488   -254654.67    274.38087    3680.6476    16117.588 
   62400   -254713.73    57.760295   -254655.97    282.28243    3815.3564    16117.588 
   62500    -254714.5    56.191628    -254658.3    274.61614      3683.37    16117.588 
   62600   -254716.12     55.93151   -254660.19    273.34491    3666.0487    16117.588 
   62700   -254716.88    56.081955    -254660.8    274.08015    3677.2479    16117.588 
   62800   -254715.06    55.859769    -254659.2     272.9943    3662.1733    16117.588 
   62900   -254713.43    56.547153   -254656.89    276.35364    3706.7075    16117.588 
   63000   -254713.46    56.323408   -254657.14    275.26017    3692.5079    16117.588 
   63100   -254713.02    55.284117   -254657.74    270.18101    3624.0324    16117.588 
   63200   -254712.52    54.570887   -254657.95    266.69536    3576.0816    16117.588 
   63300   -254713.72    56.419012   -254657.31     275.7274    3699.5635    16117.588 
   63400   -254714.78    56.061001   -254658.71    273.97775    3697.9251    16117.588 
   63500   -254717.74    55.728984   -254662.01    272.35514    3653.7538    16117.588 
   63600   -254717.12    55.341305   -254661.77     270.4605    3628.0693    16117.588 
   63700   -254717.03    56.123788   -254660.91     274.2846     3679.841    16117.588 
   63800   -254714.86    54.638007   -254660.22    267.02339    3582.0977    16117.588 
   63900   -254717.32    57.302416   -254660.02    280.04471    3758.3135    16117.588 
   64000   -254716.48    56.943354   -254659.54    278.28993    3734.3303    16117.588 
   64100   -254715.15    56.451205    -254658.7    275.88473    3701.6027    16117.588 
   64200   -254716.05    58.486119   -254657.56    285.82963    3835.9228    16117.588 
   64300   -254714.75    57.127517   -254657.62    279.18996    3746.0033    16117.588 
   64400   -254715.92    56.672563   -254659.24    276.96654     3716.027    16117.588 
   64500   -254715.81     54.55838   -254661.25    266.63424    3575.2145    16117.588 
   64600   -254716.31    55.406897    -254660.9    270.78105    3683.9479    16117.588 
   64700   -254715.74     55.76994   -254659.97    272.55529    3696.7905    16117.588 
   64800   -254715.67    57.628114   -254658.04    281.63644    3779.1082    16117.588 
   64900   -254713.21    58.395418   -254654.82    285.38637    3882.0975    16117.588 
   65000   -254713.15    57.506126   -254655.64    281.04027    3771.8802    16117.588 
   65100   -254716.69    59.083035    -254657.6    288.74684    3903.6726    16117.588 
   65200    -254716.5    56.196341    -254660.3    274.63917    3684.1846    16117.588 
   65300   -254716.42    55.028166   -254661.39    268.93014    3640.6173    16117.588 
   65400   -254715.02     54.58184   -254660.44    266.74889    3577.3136    16117.588 
   65500   -254715.28     57.55914   -254657.72    281.29936    3774.2408    16117.588 
   65600   -254714.01    56.772826   -254657.23    277.45653    3723.1954    16117.588 
   65700   -254714.98    56.681879    -254658.3    277.01207    3744.7066    16117.588 
   65800    -254714.9    55.609273   -254659.29    271.77009    3681.3108    16117.588 
   65900   -254715.13    56.183556   -254658.95    274.57669    3684.9864    16117.588 
   66000   -254715.24    58.392598   -254656.85    285.37258    3831.3106    16117.588 
   66100   -254713.08    57.920843   -254655.16    283.06705    3800.0228    16117.588 
   66200   -254714.54    58.039443    -254656.5    283.64666    3807.8798    16117.588 
   66300   -254715.94    56.945101      -254659    278.29847    3734.5024    16117.588 
   66400   -254714.38    54.785294   -254659.59     267.7432    3660.9702    16117.588 
   66500   -254714.04    55.105662   -254658.94    269.30888    3612.3975    16117.588 
   66600   -254714.17    57.289784   -254656.88    279.98298    3755.9986    16117.588 
   66700   -254713.71    58.853182   -254654.86    287.62352     3859.412    16117.588 
   66800   -254713.64    56.581164   -254657.06    276.51986    3710.1718    16117.588 
   66900   -254716.38    57.899529   -254658.48    282.96289    3821.5494    16117.588 
   67000   -254716.95    56.022228   -254660.93    273.78826    3674.6248    16117.588 
   67100   -254717.78    55.586534    -254662.2    271.65896    3645.2694    16117.588 
   67200   -254718.04    55.217253   -254662.82    269.85424    3646.9954    16117.588 
   67300   -254718.44    55.440998      -254663    270.94771    3635.4173    16117.588 
   67400   -254716.63    55.993073   -254660.64    273.64578    3742.3536    16117.588 
   67500   -254715.98    56.438965   -254659.54    275.82491    3751.3378    16117.588 
   67600   -254715.79    55.255083   -254660.53    270.03912    3670.1703    16117.588 
   67700   -254716.52    54.662368   -254661.86    267.14244    3582.9805    16117.588 
   67800   -254717.49    54.516408   -254662.97    266.42911    3574.0816    16117.588 
   67900   -254718.77    56.540681   -254662.23    276.32201    3708.5493    16117.588 
   68000   -254715.07    55.430992   -254659.64    270.89881    3634.9935    16117.588 
   68100   -254717.58    58.715777   -254658.86      286.952    3852.6304    16117.588 
   68200   -254714.86    54.703475   -254660.16    267.34334    3585.6962    16117.588 
   68300   -254717.34    55.381265   -254661.96    270.65579    3632.7632    16117.588 
   68400   -254717.57    55.759988   -254661.81    272.50666    3656.8071    16117.588 
   68500   -254718.04    56.804982   -254661.24    277.61369    3726.8921    16117.588 
   68600    -254716.8    56.630211   -254660.17    276.75956    3713.5053    16117.588 
   68700   -254715.21    56.373577   -254658.83    275.50535    3696.6749    16117.588 
   68800   -254716.22    58.432316   -254657.79    285.56669    3833.6204    16117.588 
   68900   -254717.22    56.094769   -254661.12    274.14278    3678.5671    16117.588 
   69000   -254718.52     56.38782   -254662.14    275.57496    3697.9385    16117.588 
   69100   -254718.03    55.686961   -254662.34    272.14977     3651.223    16117.588 
   69200   -254715.71    56.378965   -254659.33    275.53168    3697.0125    16117.588 
   69300   -254716.03    57.386972   -254658.64    280.45795    3763.6877    16117.588 
   69400   -254714.96    56.544774   -254658.42    276.34201     3708.029    16117.588 
   69500   -254716.91     57.94465   -254658.97     283.1834    3801.0155    16117.588 
   69600   -254716.57    54.798755   -254661.78    267.80898    3631.9262    16117.588 
   69700   -254718.12    55.457398   -254662.66    271.02786    3636.6301    16117.588 
   69800    -254718.3    56.263344   -254662.04    274.96663    3691.0719    16117.588 
   69900    -254717.2    57.214023   -254659.99    279.61272    3753.2012    16117.588 
   70000   -254715.85    57.119053   -254658.73    279.14859     3778.713    16117.588 
   70100   -254716.35    57.975363   -254658.38     283.3335    3803.4091    16117.588 
   70200   -254715.47     54.51089   -254660.96    266.40215    3572.9138    16117.588 
   70300   -254715.75    53.105599   -254662.65     259.5343     3479.217    16117.588 
   70400   -254716.91    56.415497    -254660.5    275.71022    3700.0567    16117.588 
   70500   -254716.16    56.887888   -254659.27    278.01886    3730.9748    16117.588 
   70600   -254715.21    55.916963   -254659.29    273.27382    3666.7317    16117.588 
   70700   -254718.24    56.616631   -254661.63    276.69319    3746.1088    16117.588 
   70800   -254717.69    54.084921   -254663.61    264.32038    3600.3179    16117.588 
   70900   -254717.55    54.577854   -254662.97    266.72941    3578.7747    16117.588 
   71000   -254717.18    56.437127   -254660.74    275.81593    3769.2412    16117.588 
   71100   -254716.31    56.918711   -254659.39     278.1695    3733.1662    16117.588 
   71200   -254717.74    58.510589   -254659.23    285.94922    3869.2665    16117.588 
   71300   -254717.28    56.255799   -254661.02    274.92975    3690.2626    16117.588 
   71400   -254718.83     56.20556   -254662.62    274.68423     3686.999    16117.588 
   71500   -254718.53    58.736574   -254659.79    287.05364    3908.4153    16117.588 
   71600   -254715.68    58.090727   -254657.59     283.8973    3810.8846    16117.588 
   71700   -254714.62    55.861248   -254658.76    273.00153    3661.3228    16117.588 
   71800   -254717.89    57.363906   -254660.53    280.34523    3756.9617    16117.588 
   71900   -254718.13    55.603149   -254662.53    271.74017     3646.037    16117.588 
   72000   -254717.43    54.691969   -254662.74     267.2871    3585.3594    16117.588 
   72100   -254718.66    56.258484    -254662.4    274.94287    3796.9529    16117.588 
   72200   -254718.32    56.819539    -254661.5    277.68483     3727.355    16117.588 
   72300   -254716.96    55.618969   -254661.34    271.81748    3647.8416    16117.588 
   72400   -254715.62    56.982986   -254658.64    278.48362    3738.4842    16117.588 
   72500   -254713.54    56.895909   -254656.64    278.05806     3731.982    16117.588 
   72600   -254715.03    57.837735   -254657.19    282.66089    3793.9402    16117.588 
   72700   -254713.46    54.840197   -254658.62    268.01151    3595.1351    16117.588 
   72800   -254714.79    55.190284    -254659.6    269.72244    3660.7112    16117.588 
   72900    -254714.3     54.44442   -254659.85     266.0773    3601.1035    16117.588 
   73000   -254713.58    56.194157   -254657.39     274.6285    3685.4561    16117.588 
   73100   -254715.08    58.660955   -254656.42    286.68408    3849.7297    16117.588 
   73200   -254715.72     57.36546   -254658.35    280.35282    3844.2639    16117.588 
   73300   -254716.76      56.5457   -254660.21    276.34654    3733.4783    16117.588 
   73400   -254714.96    55.942457   -254659.02    273.39841    3668.3323    16117.588 
   73500   -254715.91    56.509246    -254659.4    276.16838    3706.9315    16117.588 
   73600   -254715.61    54.391912   -254661.22    265.82068    3598.0774    16117.588 
   73700   -254718.69    55.677353   -254663.02    272.10281    3698.6218    16117.588 
   73800   -254716.34    55.511119   -254660.83     271.2904    3640.7098    16117.588 
   73900   -254714.82    56.515367   -254658.31     276.1983    3706.7423    16117.588 
   74000   -254715.27    57.806106   -254657.47    282.50632    3792.3712    16117.588 
   74100   -254714.43    56.374071   -254658.06    275.50777    3697.7865    16117.588 
   74200   -254716.03    55.515849   -254660.51    271.31352    3640.2596    16117.588 
   74300    -254717.4    55.401439      -254662    270.75438    3633.4455    16117.588 
   74400   -254717.98    56.342292   -254661.64    275.35246    3695.7612    16117.588 
   74500   -254718.31    57.071375   -254661.24    278.91559    3770.4703    16117.588 
   74600   -254717.63    57.788087   -254659.85    282.41826    3791.0129    16117.588 
   74700   -254714.69    58.221838   -254656.47    284.53805    3819.5888    16117.588 
   74800   -254714.11    56.960245   -254657.15    278.37248    3736.2726    16117.588 
   74900   -254715.21    56.136236   -254659.07    274.34544    3682.2977    16117.588 
   75000   -254715.34     55.51977   -254659.82    271.33268    3639.8276    16117.588 
   75100   -254714.28     54.76202   -254659.52    267.62945    3590.6062    16117.588 
   75200   -254714.47    56.501534   -254657.96    276.13069    3705.4643    16117.588 
   75300   -254714.57    58.501708   -254656.07    285.90582    3889.5975    16117.588 
   75400   -254713.66    55.996058   -254657.67    273.66037    3671.3014    16117.588 
   75500   -254715.27    55.481247   -254659.79    271.14441    3636.8829    16117.588 
   75600   -254716.81    57.043209   -254659.77    278.77793    3740.9017    16117.588 
   75700   -254717.08     58.25181   -254658.83    284.68453    3820.2846    16117.588 
   75800   -254718.36    58.116529   -254660.24     284.0234    3842.1512    16117.588 
   75900   -254719.02    56.204062   -254662.82    274.67691    3684.9685    16117.588 
   76000   -254717.57    54.921315   -254662.65    268.40795    3628.6534    16117.588 
   76100   -254717.21    56.533286   -254660.68    276.28587    3728.7809    16117.588 
   76200   -254715.96    55.999254   -254659.96    273.67598    3739.1232    16117.588 
   76300   -254714.48    55.392887   -254659.09    270.71259    3631.3281    16117.588 
   76400   -254715.08    56.448761   -254658.63    275.87278    3701.1943    16117.588 
   76500   -254716.87    56.455902   -254660.42    275.90769    3702.2556    16117.588 
   76600   -254718.86     56.12207   -254662.74     274.2762    3680.8349    16117.588 
   76700   -254717.49    55.569921   -254661.92    271.57777    3643.6949    16117.588 
   76800    -254716.5    56.301223    -254660.2    275.15175    3692.9446    16117.588 
   76900   -254716.44    57.329227   -254659.12    280.17574    3791.6787    16117.588 
   77000   -254714.97    55.349059   -254659.62    270.49839    3630.2684    16117.588 
   77100   -254716.38    56.971977   -254659.41    278.42981    3737.9095    16117.588 
   77200   -254716.78    57.511562   -254659.27    281.06684    3798.6314    16117.588 
   77300   -254715.24    55.289246   -254659.95    270.20608    3625.6129    16117.588 
   77400   -254718.99    56.704304   -254662.29    277.12166    3718.7893    16117.588 
   77500   -254719.55    55.515066   -254664.04    271.30969    3640.3188    16117.588 
   77600    -254718.8    55.184204   -254663.61    269.69272    3730.6203    16117.588 
   77700   -254717.19     56.14843   -254661.04    274.40503    3710.4634    16117.588 
   77800   -254717.68    57.406766   -254660.27    280.55468    3793.5506    16117.588 
   77900   -254716.34    55.576532   -254660.76    271.61008    3642.9979    16117.588 
   78000   -254717.07    56.712972   -254660.35    277.16402     3718.738    16117.588 
   78100   -254717.22    58.303388   -254658.92     284.9366     3824.805    16117.588 
   78200   -254715.89    57.645061   -254658.24    281.71927    3807.4124    16117.588 
   78300   -254718.02     57.08496   -254660.93    278.98198    3745.3443    16117.588 
   78400   -254717.05    54.657315    -254662.4    267.11774    3583.3317    16117.588 
   78500   -254717.55    55.325141   -254662.23     270.3815    3627.4885    16117.588 
   78600   -254716.92    56.179981   -254660.74    274.55922    3684.4218    16117.588 
   78700   -254715.04    56.463203   -254658.57    275.94336    3702.8682    16117.588 
   78800   -254714.97    57.972678      -254657    283.32037    3869.1161    16117.588 
   78900   -254715.36    56.063537    -254659.3    273.99014    3699.5375    16117.588 
   79000   -254717.65    55.609081   -254662.04    271.76915    3646.1474    16117.588 
   79100   -254718.77    57.212282   -254661.56    279.60422    3832.7432    16117.588 
   79200   -254715.92    55.342563   -254660.58    270.46665    3628.2222    16117.588 
   79300   -254716.27    57.153095   -254659.12    279.31496    3748.3677    16117.588 
   79400   -254717.73    57.868819   -254659.87     282.8128    3795.4842    16117.588 
   79500   -254717.92    55.299674   -254662.62    270.25704    3625.4827    16117.588 
   79600   -254719.63    56.832929   -254662.79    277.75027    3727.3156    16117.588 
   79700   -254718.68    57.296059   -254661.39    280.01365     3792.094    16117.588 
   79800   -254717.11    57.313558   -254659.79    280.09917    3759.4131    16117.588 
   79900   -254716.52    56.105504   -254660.42    274.19524     3702.245    16117.588 
   80000   -254719.33    55.540651   -254663.79    271.43473    3641.9818    16117.588 
   80100   -254718.88    55.138205   -254663.74    269.46792    3692.8392    16117.588 
   80200   -254718.88    55.826218   -254663.05    272.83033    3660.7647    16117.588 
   80300   -254719.38    56.453374   -254662.93    275.89533     3702.178    16117.588 
   80400   -254718.67    56.919642   -254661.75    278.17404    3732.7196    16117.588 
   80500   -254719.44    58.928933   -254660.51    287.99372    3990.8014    16117.588 
   80600   -254718.96    55.619282   -254663.34    271.81901    3736.0462    16117.588 
   80700   -254721.16    56.460916    -254664.7    275.93219    3702.1568    16117.588 
   80800   -254718.15    54.936062   -254663.22    268.48002    3669.1477    16117.588 
   80900   -254717.34    55.923812   -254661.41    273.30729    3726.2657    16117.588 
   81000   -254717.51    56.582731   -254660.93    276.52752    3710.9138    16117.588 
   81100   -254717.77    57.027023   -254660.75    278.69883    3894.0287    16117.588 
   81200   -254717.33    55.497745   -254661.83    271.22504    3638.5551    16117.588 
   81300   -254720.23    56.378089   -254663.85     275.5274    3696.8863    16117.588 
   81400   -254720.66    56.308031   -254664.35    275.18502    3691.8753    16117.588 
   81500   -254718.65    55.318023   -254663.33    270.34671    3625.9471    16117.588 
   81600   -254715.92    55.725325    -254660.2    272.33726    3652.8116    16117.588 
   81700    -254717.1    57.807874   -254659.29    282.51495     3791.077    16117.588 
   81800    -254716.7    56.970785   -254659.73    278.42399    3735.2407    16117.588 
   81900   -254717.93    57.296072   -254660.63    280.01371    3757.0993    16117.588 
   82000   -254718.17    54.735468   -254663.44    267.49969    3587.0089    16117.588 
   82100   -254717.36    54.095581   -254663.26    264.37247    3545.7314    16117.588 
   82200   -254719.25    57.408966   -254661.84    280.56544    3765.2501    16117.588 
   82300   -254717.22    56.609919   -254660.61    276.66039    3746.6931    16117.588 
   82400   -254716.67    55.702872   -254660.97    272.22752    3903.1373    16117.588 
   82500      -254718    56.007556   -254661.99    273.71656    3672.7177    16117.588 
   82600   -254718.95    54.927343   -254664.02    268.43741    3624.5287    16117.588 
   82700   -254718.24    54.740685    -254663.5    267.52519    3589.6151    16117.588 
   82800   -254717.47    56.968525    -254660.5    278.41294     3738.083    16117.588 
   82900   -254717.26    57.260262      -254660     279.8387     3757.108    16117.588 
   83000   -254716.97    55.934173   -254661.03    273.35793     3668.487    16117.588 
   83100   -254716.76    56.004931   -254660.75    273.70373    3673.3728    16117.588 
   83200   -254716.12    57.863559   -254658.25    282.78709    3796.3091    16117.588 
   83300   -254715.47    57.642169   -254657.83    281.70514    3807.0675    16117.588 
   83400   -254715.67    55.353997   -254660.32    270.52252    3630.1372    16117.588 
   83500   -254718.18    56.487674   -254661.69    276.06296    3704.6437    16117.588 
   83600    -254716.5    54.335486   -254662.16    265.54492    3561.6558    16117.588 
   83700   -254717.22    56.328253   -254660.89    275.28384    3693.9634    16117.588 
   83800    -254715.9    56.725171   -254659.18    277.22364    3719.3601    16117.588 
   83900   -254717.37    57.216027   -254660.16    279.62252    3752.0862    16117.588 
   84000   -254718.65     55.07052   -254663.58    269.13713     3611.154    16117.588 
   84100   -254719.74    56.042348    -254663.7    273.88659    3675.4279    16117.588 
   84200   -254719.08    57.063567   -254662.02    278.87743    3743.3082    16117.588 
   84300   -254719.26    58.087222   -254661.18    283.88017     3810.934    16117.588 
   84400   -254717.75    56.140254   -254661.61    274.36507    3681.6349    16117.588 
   84500   -254718.76    55.874297   -254662.88     273.0653    3665.0976    16117.588 
   84600   -254719.02    55.660613   -254663.36      272.021    3678.1479    16117.588 
   84700   -254718.09    56.481788   -254661.61    276.03419       3704.7    16117.588 
   84800    -254718.5    58.797801    -254659.7    287.35286    3858.5846    16117.588 
   84900   -254717.25    57.464114   -254659.79    280.83495    3809.5965    16117.588 
   85000   -254717.59    54.500135   -254663.09    266.34959    3573.1333    16117.588 
   85100   -254718.46    54.721085   -254663.74     267.4294    3587.6331    16117.588 
   85200   -254718.87    56.978548   -254661.89    278.46193     3737.056    16117.588 
   85300   -254715.67    55.347375   -254660.33    270.49016    3672.8963    16117.588 
   85400   -254716.46    56.148293   -254660.31    274.40436    3707.5814    16117.588 
   85500    -254716.9    55.316325   -254661.58    270.33842    3628.1166    16117.588 
   85600   -254720.38    55.991383   -254664.39    273.63752    3672.7472    16117.588 
   85700   -254719.84    54.644496    -254665.2    267.05509    3583.3013    16117.588 
   85800   -254719.16    56.395932   -254662.77     275.6146    3700.1156    16117.588 
   85900   -254718.17    56.247044   -254661.92    274.88697    3690.0541    16117.588 
   86000   -254717.18    55.999084   -254661.18    273.67515    3673.5395    16117.588 
   86100   -254716.05    55.852286    -254660.2    272.95773    3663.5819    16117.588 
   86200   -254715.67    56.932601   -254658.74    278.23738    3734.3732    16117.588 
   86300   -254714.44    57.336817   -254657.11    280.21283     3760.868    16117.588 
   86400   -254716.53    58.313464   -254658.21    284.98585    3850.5715    16117.588 
   86500   -254717.43    56.491468   -254660.94     276.0815     3704.001    16117.588 
   86600   -254718.77    56.410147   -254662.36    275.68407    3699.6399    16117.588 
   86700   -254718.29    56.233539   -254662.06    274.82097    3687.9964    16117.588 
   86800   -254716.55    56.225012   -254660.33     274.7793    3766.2182    16117.588 
   86900   -254716.63    57.644078   -254658.99    281.71446    3781.2239    16117.588 
   87000   -254716.85    58.448773    -254658.4    285.64712    3834.7604    16117.588 
   87100   -254716.36    57.257927    -254659.1    279.82729    3756.6863    16117.588 
   87200   -254717.89    56.793361    -254661.1    277.55689    3755.9542    16117.588 
   87300   -254718.91    56.303282   -254662.61    275.16181    3693.7267    16117.588 
   87400   -254719.66    56.241686   -254663.41    274.86078    3716.6776    16117.588 
   87500    -254718.8    55.652965   -254663.14    271.98362    3650.4101    16117.588 
   87600    -254717.2    56.960618   -254660.24     278.3743    3736.5647    16117.588 
   87700   -254715.97    57.001477   -254658.97    278.57399    3740.2753    16117.588 
   87800   -254716.97    56.435153   -254660.54    275.80628    3725.2438    16117.588 
   87900   -254716.57    54.532842   -254662.04    266.50943    3576.0996    16117.588 
   88000   -254716.48    54.497192   -254661.98     266.3352    3573.6306    16117.588 
   88100   -254716.89    57.531169   -254659.36    281.16266     3817.943    16117.588 
   88200   -254716.76    57.191996   -254659.56    279.50508    3783.6996    16117.588 
   88300   -254715.86    55.368491   -254660.49    270.59336    3631.7147    16117.588 
[...]
  408900   -254717.21    55.485777   -254661.73    271.16655    3641.1583    16117.588 
  409000   -254715.94    54.989952   -254660.95    268.74339    3630.9818    16117.588 
  409100   -254715.46    57.587667   -254657.87    281.43878    3779.8063    16117.588 
  409200    -254714.1    57.661995   -254656.44    281.80202    3784.7955    16117.588 
  409300   -254715.24    57.358986   -254657.88    280.32118    3764.2596    16117.588 
  409400   -254715.34     55.46598   -254659.87     271.0698    3677.2579    16117.588 
  409500   -254717.02    57.192914   -254659.82    279.50956    3754.0012    16117.588 
  409600   -254715.22    55.629164   -254659.59     271.8673    3650.5383    16117.588 
  409700   -254716.32    57.679912   -254658.64    281.88959    3785.2674    16117.588 
  409800   -254716.49    57.989831    -254658.5     283.4042    3806.5115    16117.588 
  409900   -254716.82    56.570427   -254660.25    276.46738    3712.2967    16117.588 
  410000   -254718.14     56.34675   -254661.79    275.37425    3697.1866    16117.588 
  410100   -254716.53    54.226774    -254662.3    265.01363    3556.9111    16117.588 
  410200   -254717.55    57.635263   -254659.91    281.67138      3783.45    16117.588 
  410300   -254714.39    56.690155    -254657.7    277.05251    3721.2603    16117.588 
  410400   -254714.08    56.904296   -254657.18    278.09905    3734.9851    16117.588 
  410500   -254714.33    56.317831   -254658.01    275.23291    3695.1831    16117.588 
  410600   -254715.76    55.154904    -254660.6    269.54953    3687.1928    16117.588 
  410700   -254715.53    54.620442   -254660.91    266.93754    3583.4931    16117.588 
  410800   -254715.25    55.633959   -254659.61    271.89074    3650.1242    16117.588 
  410900   -254717.08    59.640149   -254657.44    291.46954    3915.3533    16117.588 
  411000   -254715.05    59.997399   -254655.05    293.21546    3939.1584    16117.588 
  411100   -254714.51    56.676493   -254657.83    276.98574    3719.6607    16117.588 
  411200   -254715.35    56.568858   -254658.78    276.45972    3712.0467    16117.588 
  411300   -254716.47     57.48151   -254658.99    280.91997    3772.7241    16117.588 
  411400   -254715.49    56.706663   -254658.79    277.13319    3750.4371    16117.588 
  411500   -254717.26    57.961426    -254659.3    283.26539    3805.4115    16117.588 
  411600   -254716.59     55.35004   -254661.24    270.50319    3662.3927    16117.588 
  411700   -254716.64    56.137221   -254660.51    274.35025    3682.1861    16117.588 
  411800   -254714.89    56.852542   -254658.04    277.84612    3730.1721    16117.588 
  411900   -254713.93    57.042201   -254656.89    278.77301    3742.8012    16117.588 
  412000   -254714.07    55.982632   -254658.08    273.59475    3720.5936    16117.588 
  412100   -254715.74    56.833264   -254658.91    277.75191    3730.0468    16117.588 
  412200   -254715.52     55.73612   -254659.78    272.39001    3656.1462    16117.588 
  412300   -254716.89      53.7287   -254663.16    262.57948    3523.4728    16117.588 
  412400   -254717.41     54.90267   -254662.51    268.31683     3601.624    16117.588 
  412500    -254717.5    57.230028   -254660.27    279.69094    3789.4656    16117.588 
  412600   -254715.45    56.226678   -254659.23    274.78744    3687.0126    16117.588 
  412700   -254714.93    56.246348   -254658.69    274.88357    3730.7824    16117.588 
  412800   -254716.19    56.500248   -254659.69    276.12441    3705.7569    16117.588 
  412900   -254716.61    54.134661   -254662.48    264.56346    3548.6618    16117.588 
  413000   -254717.16    55.353141   -254661.81    270.51834    3630.6211    16117.588 
  413100   -254715.83    56.063346   -254659.76    273.98921    3746.3659    16117.588 
  413200   -254715.99    57.299384   -254658.69    280.02989    3789.3578    16117.588 
  413300    -254716.4    57.331552   -254659.07    280.18711    3761.3145    16117.588 
  413400   -254716.86    55.545436   -254661.32    271.45811    3642.9203    16117.588 
  413500   -254717.64     56.51416   -254661.13     276.1924    3707.2801    16117.588 
  413600   -254717.62    56.809335   -254660.81    277.63496    3788.4629    16117.588 
  413700   -254716.23    55.079191   -254661.15    269.17951    3637.3279    16117.588 
  413800   -254719.52    58.115072    -254661.4    284.01627    3814.2412    16117.588 
  413900    -254718.2     55.83223   -254662.37    272.85972    3699.0723    16117.588 
  414000   -254718.15    53.569171   -254664.58    261.79984    3553.2646    16117.588 
  414100   -254718.75    55.179655   -254663.57    269.67049    3620.4986    16117.588 
  414200   -254718.21    57.199379   -254661.01    279.54116     3753.507    16117.588 
  414300   -254716.65     55.90138   -254660.75    273.19766    3734.0133    16117.588 
  414400   -254716.46    56.034049   -254660.42    273.84603    3677.0422    16117.588 
  414500    -254714.6    56.705669   -254657.89    277.12833    3776.0623    16117.588 
  414600   -254714.36     58.01579   -254656.34    283.53107    3808.0448    16117.588 
  414700   -254715.39    57.088285   -254658.31    278.99823     3782.678    16117.588 
  414800   -254715.96    56.009519   -254659.95    273.72615    3673.8106    16117.588 
  414900   -254714.62    55.312379    -254659.3    270.31913    3628.4117    16117.588 
  415000   -254713.49    55.928752   -254657.56    273.33143    3698.8963    16117.588 
  415100   -254713.48     57.07791    -254656.4    278.94752    3746.0851    16117.588 
  415200   -254713.97    55.505324   -254658.47    271.26208    3641.5155    16117.588 
  415300   -254715.38    54.921456   -254660.46    268.40864    3602.5653    16117.588 
  415400   -254716.33    56.648883   -254659.68    276.85081     3717.204    16117.588 
  415500      -254716     57.87591   -254658.13    282.84746    3798.2128    16117.588 
  415600   -254714.22    56.134795   -254658.08    274.33839    3683.5562    16117.588 
  415700   -254716.03    56.507256   -254659.53    276.15866    3708.5691    16117.588 
  415800   -254717.68    55.532111   -254662.15    271.39299     3644.069    16117.588 
  415900   -254718.78    56.574094   -254662.21    276.48531    3713.5527    16117.588 
  416000   -254716.56    55.052482    -254661.5    269.04898    3612.6583    16117.588 
  416100   -254716.36    57.559809    -254658.8    281.30263    3814.3297    16117.588 
  416200   -254714.04    56.175515   -254657.86    274.53739     3686.088    16117.588 
  416300   -254715.27    56.641772   -254658.63    276.81606    3716.2507    16117.588 
  416400   -254716.28    57.037804   -254659.24    278.75152    3849.8866    16117.588 
  416500   -254716.15    56.258742   -254659.89    274.94414    3691.6691    16117.588 
  416600   -254719.37    56.530288   -254662.84    276.27122    3709.6763    16117.588 
  416700   -254718.99    55.119433   -254663.87    269.37618     3616.448    16117.588 
  416800    -254718.3    55.640295   -254662.66     271.9217    3651.2719    16117.588 
  416900      -254719      58.4384   -254660.56    285.59642    3836.3754    16117.588 
  417000   -254715.53    55.275899   -254660.25    270.14085    3696.9781    16117.588 
  417100   -254717.39    57.546853   -254659.84    281.23931    3777.3058    16117.588 
  417200   -254714.46    57.588899   -254656.87    281.44479    3779.6932    16117.588 
  417300   -254714.24    57.568276   -254656.67    281.34401    3778.9731    16117.588 
  417400   -254716.13    56.726559    -254659.4    277.23042     3723.294    16117.588 
  417500   -254717.55    57.217261   -254660.33    279.62855    3756.0351    16117.588 
  417600   -254715.65    56.315627   -254659.34    275.22214    3695.7098    16117.588 
  417700   -254713.56    56.433469   -254657.12    275.79805    3744.4217    16117.588 
  417800   -254715.03    57.600703   -254657.43    281.50248    3779.7293    16117.588 
  417900   -254715.61    54.777993   -254660.84    267.70751    3592.7971    16117.588 
  418000   -254716.54    56.622698   -254659.92    276.72284    3714.1969    16117.588 
  418100    -254715.5    56.306964    -254659.2     275.1798    3693.4804    16117.588 
  418200   -254713.77     55.80049   -254657.96     272.7046    3659.7067    16117.588 
  418300   -254712.63    57.140156   -254655.49    279.25173    3748.9036    16117.588 
  418400   -254713.19    58.119006   -254655.07     284.0355    3813.5981    16117.588 
  418500   -254715.94    57.764462   -254658.17     282.3028    3791.0186    16117.588 
  418600   -254716.81    56.826154   -254659.98    277.71716    3728.7358    16117.588 
  418700   -254716.21    56.366272   -254659.85    275.46965    3699.0809    16117.588 
  418800   -254716.49    56.923306   -254659.57    278.19195    3736.2028    16117.588 
  418900   -254716.87    55.720637   -254661.14    272.31434    3656.2962    16117.588 
  419000   -254717.16    55.334524   -254661.82    270.42736    3630.6694    16117.588 
  419100   -254714.79    55.862879   -254658.93     273.0095    3665.2747    16117.588 
  419200   -254715.82    58.272371   -254657.54    284.78502    3825.5174    16117.588 
  419300   -254716.71    58.387205   -254658.32    285.34623    3833.2732    16117.588 
  419400   -254715.76     56.06201   -254659.69    273.98268    3678.8992    16117.588 
  419500   -254717.13    54.962937   -254662.17    268.61136    3605.2063    16117.588 
  419600   -254717.55    52.806565   -254664.74    258.07288    3487.5404    16117.588 
  419700   -254718.03    55.006752   -254663.03    268.82549     3608.425    16117.588 
  419800   -254715.96    54.793066   -254661.16    267.78118    3688.5086    16117.588 
  419900   -254716.11    56.632909   -254659.47    276.77274    3716.1241    16117.588 
  420000   -254715.15    57.409095   -254657.74    280.56607    3767.6463    16117.588 
  420100   -254715.19    56.282275   -254658.91    275.05914    3692.7456    16117.588 
  420200   -254717.65    56.646381      -254661    276.83858    3746.9765    16117.588 
  420300   -254717.69    55.136563   -254662.56     269.4599    3617.3035    16117.588 
  420400   -254717.43     55.38577   -254662.04     270.6778    3678.2872    16117.588 
  420500    -254717.7    56.121248   -254661.58    274.27219    3793.5858    16117.588 
  420600   -254717.73     56.82335   -254660.91    277.70345    3728.9089    16117.588 
  420700   -254715.74    56.401016   -254659.34    275.63945    3701.1808    16117.588 
  420800   -254715.24    58.592377   -254656.65    286.34893    3846.2302    16117.588 
  420900   -254713.26    57.083587   -254656.17    278.97527    3746.3938    16117.588 
  421000   -254713.83    56.685067   -254657.15    277.02765    3720.5045    16117.588 
  421100   -254715.69    55.340419   -254660.35    270.45617    3631.2029    16117.588 
  421200    -254715.6    54.970467   -254660.63    268.64816    3607.2486    16117.588 
  421300   -254714.54    56.324646   -254658.21    275.26622    3696.6778    16117.588 
  421400    -254714.2    56.643121   -254657.56    276.82265    3718.1024    16117.588 
  421500   -254712.75    54.072543   -254658.68    264.25988    3547.2378    16117.588 
  421600   -254715.83    55.508666   -254660.32    271.27842    3643.6116    16117.588 
  421700   -254717.76    55.409804   -254662.35    270.79526    3662.9964    16117.588 
  421800   -254717.77    55.788123   -254661.98    272.64416    3661.8376    16117.588 
  421900    -254715.3    55.871122   -254659.42    273.04979    3691.6328    16117.588 
  422000   -254715.25    56.830082   -254658.42    277.73636    3759.7411    16117.588 
  422100   -254715.33    56.098747   -254659.23    274.16222     3771.565    16117.588 
  422200   -254715.27    56.159571   -254659.11    274.45947    3685.8892    16117.588 
  422300   -254716.55    57.488333   -254659.06    280.95332    3773.8253    16117.588 
  422400   -254716.26    56.165334   -254660.09    274.48764    3685.8844    16117.588 
  422500   -254716.39    55.091624   -254661.29    269.24027    3680.2966    16117.588 
  422600   -254714.66    55.556967    -254659.1    271.51447    3645.5978    16117.588 
  422700   -254712.88    56.234997   -254656.64    274.82809    3690.0797    16117.588 
  422800   -254713.12    56.790906   -254656.33     277.5449     3727.325    16117.588 
  422900   -254713.99    56.846272   -254657.14    277.81548    3731.9165    16117.588 
  423000   -254715.03    55.853532   -254659.18    272.96382    3709.6145    16117.588 
  423100   -254714.07     54.73437   -254659.33    267.49432    3591.1727    16117.588 
  423200   -254714.76    56.454834   -254658.31    275.90247    3706.0186    16117.588 
  423300   -254714.49    57.254456   -254657.23    279.81033    3758.4213    16117.588 
  423400   -254712.75    56.209823   -254656.54    274.70507    3689.3915    16117.588 
  423500   -254713.83    56.919257   -254656.91    278.17216    3735.7525    16117.588 
  423600   -254714.93    55.832094    -254659.1    272.85905    3663.6354    16117.588 
  423700    -254716.5    55.760011   -254660.74    272.50677    3657.8865    16117.588 
  423800   -254717.08     55.36198   -254661.72    270.56154    3631.9547    16117.588 
  423900   -254716.25    56.476119   -254659.77    276.00649    3705.8733    16117.588 
  424000    -254713.2    55.999985    -254657.2    273.67955     3673.737    16117.588 
  424100   -254713.73    56.575462   -254657.16    276.49199    3711.2541    16117.588 
  424200   -254714.25    55.562735   -254658.69    271.54266    3645.0582    16117.588 
  424300   -254715.41     55.83381   -254659.58    272.86744    3662.7214    16117.588 
  424400   -254716.68    55.644735   -254661.03     271.9434    3650.1102    16117.588 
  424500   -254717.02    53.436025   -254663.59    261.14913     3562.526    16117.588 
  424600   -254716.63     54.62847      -254662    266.97677    3609.3148    16117.588 
  424700   -254715.26    55.432321   -254659.83    270.90531    3635.7978    16117.588 
  424800   -254715.31    56.323021   -254658.99    275.25828    3695.1099    16117.588 
  424900   -254714.98     55.53064   -254659.45    271.38581    3641.7606    16117.588 
  425000   -254715.66    54.633934   -254661.02    267.00348    3584.1644    16117.588 
  425100   -254717.44    55.216908   -254662.23    269.85255    3622.6286    16117.588 
  425200   -254717.02    57.011428      -254660    278.62262    3740.8818    16117.588 
  425300   -254715.63    57.370574   -254658.26    280.37781    3765.3593    16117.588 
  425400   -254716.15     56.40898   -254659.74    275.67837    3701.3568    16117.588 
  425500    -254717.2    56.699275    -254660.5    277.09708    3720.2906    16117.588 
  425600   -254717.31    56.765714   -254660.54    277.42178    3724.8626    16117.588 
  425700   -254715.54    55.921372   -254659.62    273.29537    3732.0137    16117.588 
  425800   -254715.87    56.654679   -254659.22    276.87914    3718.4416    16117.588 
  425900    -254716.4    56.736274   -254659.66     277.2779    3724.0242    16117.588 
  426000   -254716.43    56.358043   -254660.07    275.42943    3698.8395    16117.588 
  426100   -254716.29    56.697699    -254659.6    277.08938    3721.7568    16117.588 
  426200   -254714.95    58.331724   -254656.62    285.07508    3864.9137    16117.588 
  426300    -254715.9    58.880833   -254657.02    287.75865    3865.6898    16117.588 
  426400    -254717.2     56.86746   -254660.33    277.91903    3731.8176    16117.588 
  426500   -254716.03    54.921321   -254661.11    268.40798    3638.7894    16117.588 
  426600   -254715.63    55.492711   -254660.14    271.20044    3640.4146    16117.588 
  426700   -254714.98    56.391523   -254658.58    275.59306    3700.1492    16117.588 
  426800   -254716.26    56.493562   -254659.77    276.09173    3704.6487    16117.588 
  426900   -254718.73    56.721445   -254662.01    277.20543    3721.5888    16117.588 
  427000   -254719.18    56.495508   -254662.69    276.10125    3707.3658    16117.588 
  427100   -254717.94    55.734964    -254662.2    272.38436    3656.6653    16117.588 
  427200   -254718.06    57.362825    -254660.7    280.33994    3808.8846    16117.588 
  427300   -254717.17    58.601559   -254658.57     286.3938     3846.803    16117.588 
  427400   -254713.19    55.922202   -254657.27    273.29942     3669.458    16117.588 
  427500    -254715.7    55.592907   -254660.11    271.69011    3647.0972    16117.588 
  427600   -254716.88     54.59115   -254662.29    266.79439    3580.1825    16117.588 
  427700   -254719.59    57.224068   -254662.36    279.66182    3778.8328    16117.588 
  427800   -254718.11    55.600667   -254662.51    271.72804    3647.9458    16117.588 
  427900   -254718.51    56.770358   -254661.74    277.44447    3773.3724    16117.588 
  428000   -254716.78    56.850562   -254659.93    277.83644    3730.8611    16117.588 
  428100   -254715.48     57.90522   -254657.57     282.9907    3801.6002    16117.588 
  428200   -254714.98    56.649928   -254658.33    276.85592    3818.1623    16117.588 
  428300   -254716.89     57.03168   -254659.86    278.72159     3743.985    16117.588 
  428400   -254715.86    55.516712   -254660.35    271.31774    3643.2311    16117.588 
  428500   -254716.57    56.879492   -254659.69    277.97783    3732.3083    16117.588 
  428600   -254715.18    55.781456    -254659.4    272.61158     3736.538    16117.588 
  428700   -254715.98     54.31577   -254661.66    265.44857    3628.9593    16117.588 
  428800   -254717.75      54.9954   -254662.75    268.77001      3607.15    16117.588 
  428900   -254716.53    55.253135   -254661.28     270.0296    3624.1894    16117.588 
  429000   -254715.21    56.599421   -254658.61    276.60908    3713.5772    16117.588 
  429100   -254715.37    56.744071   -254658.63      277.316    3750.7692    16117.588 
  429200   -254715.87    57.010505   -254658.86     278.6181    3766.7135    16117.588 
  429300   -254716.85    55.977048   -254660.88    273.56746    3673.5221    16117.588 
  429400    -254717.8    55.216006   -254662.59    269.84814    3647.1339    16117.588 
  429500   -254718.06    55.648431   -254662.41    271.96146    3651.9128    16117.588 
  429600   -254715.55    56.819755   -254658.73    277.68588    3772.0858    16117.588 
  429700   -254714.19    55.706334   -254658.49    272.24444    3655.8118    16117.588 
  429800   -254714.26    56.102093   -254658.15    274.17857    3681.6258    16117.588 
  429900   -254715.02    56.575002   -254658.45    276.48974    3713.2556    16117.588 
  430000   -254714.69    55.866905   -254658.83    273.02917    3665.4385    16117.588 
Loop time of 71975.8 on 1 procs for 430000 steps with 1584 atoms

Performance: 0.258 ns/day, 92.992 hours/ns, 5.974 timesteps/s
97.3% CPU use with 1 MPI tasks x 1 OpenMP threads

MPI task timing breakdown:
Section |  min time  |  avg time  |  max time  |%varavg| %total
---------------------------------------------------------------
Pair    | 67442      | 67442      | 67442      |   0.0 | 93.70
Kspace  | 221.67     | 221.67     | 221.67     |   0.0 |  0.31
Neigh   | 1029.2     | 1029.2     | 1029.2     |   0.0 |  1.43
Comm    | 11.212     | 11.212     | 11.212     |   0.0 |  0.02
Output  | 3258.7     | 3258.7     | 3258.7     |   0.0 |  4.53
Modify  | 11.46      | 11.46      | 11.46      |   0.0 |  0.02
Other   |            | 1.911      |            |       |  0.00

Nlocal:        1584.00 ave        1584 max        1584 min
Histogram: 1 0 0 0 0 0 0 0 0 0
Nghost:        10167.0 ave       10167 max       10167 min
Histogram: 1 0 0 0 0 0 0 0 0 0
Neighs:        816205.0 ave      816205 max      816205 min
Histogram: 1 0 0 0 0 0 0 0 0 0
FullNghs:  1.12545e+06 ave 1.12545e+06 max 1.12545e+06 min
Histogram: 1 0 0 0 0 0 0 0 0 0

Total # of neighbors = 1125448
Ave neighs/atom = 710.51010
Neighbor list builds = 43000
Dangerous builds not checked
Total wall time: 19:59:40
