LAMMPS (29 Sep 2021 - Update 2)
OMP_NUM_THREADS environment is not set. Defaulting to 1 thread. (src/comm.cpp:98)
  using 1 OpenMP thread(s) per MPI task
Reading data file ...
  orthogonal box = (0.0000000 0.0000000 0.0000000) to (25.260000 25.260000 25.260000)
  1 by 1 by 1 MPI processor grid
WARNING: Atom style in data file differs from currently defined atom style (src/read_data.cpp:516)
  reading atoms ...
  1584 atoms
  read_data CPU = 0.007 seconds
NequIP Coeff: type 1 is element O
NequIP Coeff: type 2 is element H
NequIP Coeff: type 3 is element Li
NequIP Coeff: type 4 is element Cl
Scanning dump file ...
Reading snapshot from dump file ...
  orthogonal box = (0.0000000 0.0000000 0.0000000) to (25.260000 25.260000 25.260000)
  1584 atoms before read
  1584 atoms in snapshot
  0 atoms purged
  1584 atoms replaced
  0 atoms trimmed
  0 atoms added
  1584 atoms after read
PPPM initialization ...
  using 12-bit tables for long-range coulomb (src/kspace.cpp:340)
  G vector (1/distance) = 0.22568151
  grid = 9 9 9
  stencil order = 5
  estimated absolute RMS force accuracy = 8.1621662e-06
  estimated relative force accuracy = 5.6683107e-07
  using double precision FFTW3
  3d grid and FFT values/proc = 2744 729
Neighbor list info ...
  update every 10 steps, delay 0 steps, check no
  max neighbors/atom: 2000, page size: 100000
  master list distance cutoff = 12
  ghost atom cutoff = 12
  binsize = 6, bins = 5 5 5
  3 neighbor lists, perpetual/occasional/extra = 3 0 0
  (1) pair nequip, perpetual
      attributes: full, newton off
      pair build: full/bin/atomonly
      stencil: full/bin/3d
      bin: standard
  (2) pair coul/long, perpetual, half/full from (1)
      attributes: half, newton off
      pair build: halffull/newtoff
      stencil: none
      bin: none
  (3) pair gauss/cut, perpetual, copy from (2)
      attributes: half, newton off
      pair build: copy
      stencil: none
      bin: none
Setting up Verlet run ...
  Unit style    : metal
  Current step  : 0
  Time step     : 0.0005
Per MPI rank memory allocation (min/avg/max) = 16.42 | 16.42 | 16.42 Mbytes
Step PotEng KinEng TotEng Temp Press Volume 
       0   -254646.98    97.193935   -254549.78          475    6421.5115    16117.588 
     100   -254649.49    98.234831   -254551.25      480.087    6463.8329    16117.588 
     200   -254653.55    97.429931   -254556.12    476.15335    6411.6065    16117.588 
     300   -254651.77    95.388946   -254556.38    466.17878    6274.3332    16117.588 
     400   -254654.26    100.07455   -254554.18    489.07798    6586.4921    16117.588 
     500   -254649.46    95.085015   -254554.38    464.69342     6257.006    16117.588 
     600   -254653.66    95.717307   -254557.94    467.78352    6295.5218    16117.588 
     700   -254653.86    92.775195   -254561.08    453.40502     6102.575    16117.588 
     800   -254655.07     96.65082   -254558.42    472.34572    6361.1312    16117.588 
     900   -254653.02     96.86581   -254556.16    473.39641    6401.3149    16117.588 
    1000   -254651.51    97.424974   -254554.09    476.12912    6402.3611    16117.588 
    1100   -254648.21     95.89873   -254552.32    468.67016    6376.5084    16117.588 
    1200   -254649.23    100.06079   -254549.17    489.01073    6585.7198    16117.588 
    1300    -254650.1    103.15093   -254546.95    504.11263    6816.3816    16117.588 
    1400   -254650.63    98.680627   -254551.95    482.26567    6494.8519    16117.588 
    1500   -254648.73    93.794426   -254554.94    458.38614    6217.6557    16117.588 
    1600    -254651.3    97.263813   -254554.04    475.34151    6632.9211    16117.588 
    1700   -254651.91    99.182622   -254552.72    484.71899    6630.7574    16117.588 
    1800   -254651.39    98.829514   -254552.56     482.9933    6529.2785    16117.588 
    1900   -254651.48    98.622028   -254552.86    481.97929    6487.3458    16117.588 
    2000   -254646.63    92.269077   -254554.36    450.93155    6070.3556    16117.588 
    2100   -254649.36    96.659561    -254552.7    472.38844    6362.2423    16117.588 
    2200   -254648.74    99.913746   -254548.83    488.29209    6575.1095    16117.588 
    2300   -254648.47    97.518268   -254550.95    476.58506    6493.5276    16117.588 
    2400   -254649.21    95.082416   -254554.12    464.68072    6327.3552    16117.588 
    2500   -254653.58    99.636017   -254553.94    486.93479    6558.6231    16117.588 
    2600   -254650.17    95.913569   -254554.25    468.74268    6309.2791    16117.588 
    2700   -254649.82     96.94426   -254552.88     473.7798    6415.0038    16117.588 
    2800   -254647.57    98.161694   -254549.41    479.72957    6458.9894    16117.588 
    2900   -254651.16    101.06727   -254550.09    493.92952    6652.2264    16117.588 
    3000   -254652.65    96.995125   -254555.66    474.02839    6382.6827    16117.588 
    3100   -254652.42    97.162696   -254555.26    474.84734    6450.1049    16117.588 
    3200   -254650.42    96.539092   -254553.88     471.7997    6351.4336    16117.588 
    3300   -254651.61    101.31667    -254550.3    495.14836    6664.4345    16117.588 
    3400   -254648.41     100.4161   -254547.99    490.74719    6605.8759    16117.588 
    3500   -254648.08    100.16712   -254547.91    489.53036    6632.2552    16117.588 
    3600   -254651.78    98.611014   -254553.17    481.92546     6489.329    16117.588 
    3700   -254649.27    95.272338   -254553.99     465.6089    6267.0404    16117.588 
    3800   -254649.33    97.889313   -254551.44    478.39841    6545.1805    16117.588 
    3900   -254648.29    99.080634    -254549.2    484.22056    6518.7698    16117.588 
    4000   -254650.43    99.119661   -254551.31    484.41129    6587.6287    16117.588 
    4100   -254654.77    98.346452   -254556.42    480.63251    6473.4392    16117.588 
    4200   -254652.54    96.175069   -254556.36    470.02066    6330.6786    16117.588 
    4300   -254652.64    98.910171   -254553.73    483.38748    6567.0554    16117.588 
    4400   -254649.27    98.797084   -254550.47    482.83481    6568.0798    16117.588 
    4500   -254646.99     98.03073   -254548.96    479.08953    6451.0683    16117.588 
    4600   -254648.71     97.95933   -254550.75    478.74059    6449.3439    16117.588 
    4700   -254652.45    99.603454   -254552.85    486.77565    6659.7492    16117.588 
    4800   -254651.58    95.776454    -254555.8    468.07258    6333.8552    16117.588 
    4900   -254652.16    94.681251   -254557.47    462.72017    6230.4551    16117.588 
    5000   -254652.24    95.347246    -254556.9    465.97498    6275.9173    16117.588 
    5100   -254650.23    99.039669   -254551.19    484.02036    6521.1667    16117.588 
    5200   -254647.24     96.85711   -254550.38    473.35389    6441.1651    16117.588 
    5300   -254648.39    95.525067   -254552.86    466.84402    6287.4213    16117.588 
    5400   -254651.76    96.112827   -254555.65    469.71648    6349.1035    16117.588 
    5500   -254652.24    96.850775   -254555.39    473.32293    6445.5074    16117.588 
    5600   -254649.97    100.87321    -254549.1    492.98114    6644.0634    16117.588 
    5700   -254647.85    98.705687   -254549.14    482.38814    6568.0329    16117.588 
    5800   -254650.18      97.5194   -254552.66     476.5906    6501.6321    16117.588 
    5900   -254650.76    95.254855   -254555.51    465.52346    6271.6312    16117.588 
    6000   -254651.31    95.818348   -254555.49    468.27732     6308.661    16117.588 
    6100   -254651.08    97.772362   -254553.31    477.82686    6506.8349    16117.588 
    6200   -254651.58    101.69785   -254549.88    497.01126    6700.0915    16117.588 
    6300   -254652.14     103.5784   -254548.57    506.20176    6819.8074    16117.588 
    6400    -254651.3    97.724307   -254553.57      477.592    6435.9618    16117.588 
    6500   -254650.42    95.462845   -254554.96    466.53993    6283.2348    16117.588 
    6600   -254648.72    95.259412   -254553.46    465.54572    6301.9644    16117.588 
    6700   -254650.87      99.6926   -254551.17    487.21132    6567.6114    16117.588 
    6800   -254651.95    100.89949   -254551.05    493.10957    6674.2445    16117.588 
    6900   -254653.67    97.904471   -254555.77    478.47249    6483.3927    16117.588 
    7000   -254656.97    98.360855   -254558.61     480.7029     6502.574    16117.588 
    7100   -254654.03    95.779457   -254558.25    468.08725    6307.6762    16117.588 
    7200   -254650.77    96.725952   -254554.05     472.7129    6369.4892    16117.588 
    7300   -254651.75    99.791822   -254551.95    487.69623    6573.1156    16117.588 
    7400   -254652.49    98.527784   -254553.96     481.5187    6560.6822    16117.588 
    7500   -254652.71    96.997325   -254555.71    474.03914    6387.7904    16117.588 
    7600   -254653.65    96.960504   -254556.69    473.85919    6429.6282    16117.588 
    7700    -254652.4    94.546475   -254557.85     462.0615    6296.8785    16117.588 
    7800   -254655.77    98.370466    -254557.4    480.74987    6479.9851    16117.588 
    7900   -254653.43    99.223069   -254554.21    484.91666     6534.695    16117.588 
    8000   -254650.66    98.568753   -254552.09    481.71893    6543.6552    16117.588 
    8100   -254650.36    98.580568   -254551.78    481.77667    6593.6684    16117.588 
    8200   -254649.46    95.168414   -254554.29      465.101    6435.4595    16117.588 
    8300   -254652.28    94.347236   -254557.93    461.08779    6211.8344    16117.588 
    8400   -254651.97    94.338059   -254557.63    461.04295    6206.3314    16117.588 
    8500   -254649.46     96.45277   -254553.01    471.37783    6374.6908    16117.588 
    8600   -254651.93    99.938631   -254551.99    488.41371     6580.757    16117.588 
    8700   -254652.98     98.63707   -254554.34     482.0528    6495.9931    16117.588 
    8800   -254652.25    96.455722    -254555.8    471.39226    6377.9587    16117.588 
    8900   -254652.77    95.918132   -254556.85    468.76498    6374.0981    16117.588 
    9000   -254652.64     95.72123   -254556.91    467.80269    6300.4516    16117.588 
    9100   -254653.77    99.913778   -254553.86    488.29225    6617.8594    16117.588 
    9200   -254652.35    99.861894   -254552.48    488.03868    6645.6384    16117.588 
    9300   -254652.07    96.580312   -254555.49    472.00114     6358.042    16117.588 
    9400   -254653.63    94.951898   -254558.67    464.04286    6251.2609    16117.588 
    9500   -254656.77    98.537945   -254558.23    481.56836    6489.7455    16117.588 
    9600   -254655.56    98.540527   -254557.02    481.58098    6435.5469    16117.588 
    9700   -254653.14    96.386744   -254556.76    471.05515    6347.3627    16117.588 
    9800   -254653.32    98.381278   -254554.94    480.80271    6477.0518    16117.588 
    9900   -254654.26    101.43117   -254552.83    495.70795    6672.0569    16117.588 
   10000   -254650.57    95.076923    -254555.5    464.65388    6258.7467    16117.588 
   10100   -254651.73    94.059444   -254557.67    459.68132    6249.0993    16117.588 
   10200   -254651.24    95.625854   -254555.61    467.33657     6295.337    16117.588 
   10300   -254647.86      97.4782   -254550.39    476.38924    6418.8099    16117.588 
   10400   -254649.01    99.276434   -254549.74    485.17746    6590.6599    16117.588 
   10500   -254651.88    98.953784   -254552.93    483.60062    6517.6748    16117.588 
   10600   -254651.18     95.83203   -254555.35    468.34419    6307.6355    16117.588 
   10700   -254655.17    99.845688   -254555.32    487.95948    6635.0801    16117.588 
   10800   -254654.58     97.05266   -254557.53    474.30957    6419.3839    16117.588 
   10900   -254657.31    95.127074   -254562.18    464.89897    6300.1607    16117.588 
   11000   -254655.89    93.398068   -254562.49    456.44908    6150.4698    16117.588 
   11100   -254654.34    96.651462   -254557.69    472.34886    6367.4595    16117.588 
   11200   -254655.29    98.879264   -254556.41    483.23644    6513.4005    16117.588 
   11300   -254651.43    95.493343   -254555.94    466.68898    6288.7618    16117.588 
   11400   -254652.37    94.939494   -254557.43    463.98224    6253.8399    16117.588 
   11500    -254654.9    96.209863   -254558.69    470.19071     6385.102    16117.588 
   11600    -254654.5     98.00314    -254556.5     478.9547    6454.3623    16117.588 
   11700   -254649.99    97.287521    -254552.7    475.45737    6472.5371    16117.588 
   11800   -254653.18    98.884498    -254554.3    483.26202     6567.296    16117.588 
   11900   -254652.65    94.843546   -254557.81    463.51333     6244.025    16117.588 
   12000   -254654.86    96.782014   -254558.07    472.98689    6372.2153    16117.588 
   12100   -254655.97    98.691509   -254557.28    482.31885    6531.5192    16117.588 
   12200   -254653.87    95.784443   -254558.09    468.11162    6307.8145    16117.588 
   12300   -254653.59    95.930637   -254557.66    468.82609    6384.5412    16117.588 
   12400   -254651.51    96.943307   -254554.57    473.77515    6536.5582    16117.588 
   12500   -254653.26    101.67023   -254551.59    496.87628    6748.4966    16117.588 
   12600   -254652.19    100.82753   -254551.36     492.7579    6675.5043    16117.588 
   12700   -254650.43    97.481863   -254552.95    476.40714    6448.6789    16117.588 
   12800   -254651.07     95.51448   -254555.55    466.79228    6284.0197    16117.588 
   12900   -254652.97    96.689765   -254556.28    472.53605    6367.5772    16117.588 
   13000   -254651.56     97.41998   -254554.14    476.10471    6417.1619    16117.588 
   13100   -254647.93    97.955211   -254549.97    478.72046    6475.4726    16117.588 
   13200   -254646.64    96.331248   -254550.31    470.78393    6345.3281    16117.588 
   13300    -254648.1    92.699237    -254555.4     453.0338    6168.6056    16117.588 
   13400   -254652.43    95.508512   -254556.92    466.76311     6315.804    16117.588 
   13500   -254651.25    95.940896   -254555.31    468.87623    6320.0525    16117.588 
   13600   -254651.35    100.38384   -254550.96     490.5895    6614.2682    16117.588 
   13700   -254650.56    102.15191    -254548.4    499.23029    6771.3793    16117.588 
   13800   -254647.89    97.466989   -254550.42    476.33446    6416.6183    16117.588 
   13900   -254649.53    96.381636   -254553.15    471.03018    6370.1861    16117.588 
   14000    -254646.4    93.415459   -254552.99    456.53408    6146.2865    16117.588 
   14100   -254649.24    98.250021   -254550.99    480.16124    6470.7277    16117.588 
   14200    -254648.6    98.632415   -254549.97    482.03005    6496.8431    16117.588 
   14300    -254650.3    96.036324   -254554.26     469.3426      6347.62    16117.588 
   14400   -254653.79    96.330872   -254557.46    470.78209    6345.5281    16117.588 
   14500   -254654.08    97.459454   -254556.62    476.29763    6418.9927    16117.588 
   14600   -254648.88    95.869311   -254553.01    468.52639     6339.546    16117.588 
   14700   -254650.08    99.494404   -254550.59    486.24271    6585.2446    16117.588 
   14800   -254650.33    98.352839   -254551.98    480.66372    6529.0861    16117.588 
   14900   -254649.52    97.169883   -254552.35    474.88246    6500.9931    16117.588 
   15000   -254653.31    96.640313   -254556.67    472.29437    6365.1835    16117.588 
   15100   -254653.49    94.293153   -254559.19    460.82348    6208.8193    16117.588 
   15200   -254652.85    95.348337    -254557.5    465.98031    6310.3024    16117.588 
   15300   -254652.47    97.504331   -254554.97    476.51695    6480.0089    16117.588 
   15400   -254651.41    98.373857   -254553.03    480.76644     6480.605    16117.588 
   15500   -254651.18    98.811065   -254552.37    482.90313    6509.4518    16117.588 
   15600   -254652.06    96.016748   -254556.04    469.24693    6321.4127    16117.588 
   15700   -254655.72    96.335824   -254559.39     470.8063    6343.8166    16117.588 
   15800   -254653.74    95.296301   -254558.44    465.72601    6273.5693    16117.588 
   15900   -254652.73    98.401758   -254554.33     480.9028    6533.3474    16117.588 
   16000   -254650.03    97.039654   -254552.99    474.24601    6390.2759    16117.588 
   16100   -254651.89    98.573984   -254553.32    481.74449    6521.3888    16117.588 
   16200   -254651.09    96.338443   -254554.75     470.8191    6343.1096    16117.588 
   16300   -254654.64    95.728319   -254558.91    467.83734    6339.8357    16117.588 
   16400   -254656.78    95.632881   -254561.15    467.37092    6296.3266    16117.588 
   16500   -254653.75    94.562366   -254559.18    462.13916    6219.9978    16117.588 
   16600   -254651.95    97.396376   -254554.56    475.98936    6412.0048    16117.588 
   16700   -254647.92    94.047259   -254553.87    459.62177    6190.5394    16117.588 
   16800   -254652.38    98.755558   -254553.62    482.63187    6549.4258    16117.588 
   16900   -254648.77    93.825752   -254554.94    458.53923    6173.0619    16117.588 
   17000   -254651.08    94.670737   -254556.41    462.66879    6256.7392    16117.588 
   17100   -254653.86    95.133634   -254558.73    464.93103    6262.2441    16117.588 
   17200   -254654.12    96.358217   -254557.76    470.91574    6344.0072    16117.588 
   17300   -254654.12    100.11481   -254554.01    489.27471    6590.3185    16117.588 
   17400   -254655.12    101.27825   -254553.84    494.96061    6701.9415    16117.588 
   17500   -254653.35    96.394048   -254556.96    471.09084    6448.0616    16117.588 
   17600   -254655.22    96.235321   -254558.99    470.31513    6405.3609    16117.588 
   17700   -254651.96    94.412717   -254557.55    461.40781    6214.1384    16117.588 
   17800   -254649.46    94.106993   -254555.35     459.9137    6243.6393    16117.588 
   17900   -254651.51    97.976691   -254553.54    478.82544    6521.1591    16117.588 
   18000   -254651.34    97.062969   -254554.28    474.35995    6430.2503    16117.588 
   18100   -254652.99    95.627917   -254557.37    467.34666    6360.0491    16117.588 
   18200   -254654.85    97.040102   -254557.81     474.2482    6446.5899    16117.588 
   18300   -254653.17    96.770806    -254556.4    472.93211    6367.4838    16117.588 
   18400   -254651.65    99.841479   -254551.81    487.93891    6571.1037    16117.588 
   18500   -254649.23    97.935531   -254551.29    478.62428    6559.3274    16117.588 
   18600   -254652.03    98.510215   -254553.52    481.43284    6511.2953    16117.588 
   18700   -254651.53    93.370349   -254558.16    456.31361    6240.0225    16117.588 
   18800   -254651.73     94.53679    -254557.2    462.01417    6222.2816    16117.588 
   18900   -254652.32    96.661326   -254555.66    472.39707    6363.7621    16117.588 
   19000   -254653.96    101.24248   -254552.72    494.78579    6665.0851    16117.588 
   19100   -254649.64    97.735252   -254551.91    477.64549    6465.5845    16117.588 
   19200   -254649.13     93.26606   -254555.86    455.80394    6426.8328    16117.588 
   19300   -254655.43    95.405849   -254560.02    466.26138    6319.2215    16117.588 
   19400   -254650.64    91.723354   -254558.91    448.26453    6037.2973    16117.588 
   19500   -254652.61    98.233437   -254554.38    480.08019    6469.1886    16117.588 
   19600   -254651.65    98.324268   -254553.32    480.52409    6469.6297    16117.588 
   19700   -254653.11    98.837474   -254554.27     483.0322    6506.2105    16117.588 
   19800   -254652.91    95.275598   -254557.63    465.62483    6273.9351    16117.588 
   19900   -254655.51     95.22597   -254560.28    465.38229    6301.1987    16117.588 
   20000   -254655.72    99.117021    -254556.6    484.39839    6527.4446    16117.588 
   20100   -254652.11    98.531601   -254553.58    481.53736    6488.6147    16117.588 
   20200   -254649.55    95.301536   -254554.24    465.75159    6274.3303    16117.588 
   20300    -254648.6     95.23204   -254553.37    465.41196    6307.0587    16117.588 
   20400   -254648.77    98.410628   -254550.36    480.94615    6481.2487    16117.588 
   20500   -254645.21     97.99764   -254547.21    478.92782    6453.8988    16117.588 
   20600   -254648.66    98.958552    -254549.7    483.62393    6604.0613    16117.588 
   20700   -254650.97    97.464626   -254553.51    476.32291    6526.3758    16117.588 
   20800   -254652.89    98.369842   -254554.52    480.74682    6474.1526    16117.588 
   20900   -254656.23    99.848307   -254556.38    487.97228    6570.7177    16117.588 
   21000   -254652.66    94.100343   -254558.56     459.8812    6191.0619    16117.588 
   21100   -254650.89    96.838817   -254554.05    473.26449     6401.311    16117.588 
   21200    -254649.3    97.995173    -254551.3    478.91576     6452.254    16117.588 
   21300   -254649.59    96.949004   -254552.64    473.80299      6424.41    16117.588 
   21400   -254650.29    96.166804   -254554.13    469.98027    6330.1759    16117.588 
   21500   -254652.08    95.726014   -254556.36    467.82607    6306.0879    16117.588 
   21600   -254658.08    98.057404   -254560.02    479.21989    6462.1237    16117.588 
   21700   -254657.22    95.368467   -254561.85    466.07869    6282.8907    16117.588 
   21800   -254657.07    99.963241   -254557.11    488.53398    6616.0729    16117.588 
   21900    -254650.1    94.401679    -254555.7    461.35387    6378.9452    16117.588 
   22000   -254652.16    96.673417   -254555.49    472.45616    6361.3919    16117.588 
   22100   -254652.26    96.569507   -254555.69    471.94834    6377.3844    16117.588 
   22200   -254651.28    95.497331   -254555.79    466.70847    6287.9195    16117.588 
   22300   -254652.38     99.86854   -254552.51    488.07116    6579.5227    16117.588 
   22400   -254649.22    98.146484   -254551.08    479.65524    6464.9819    16117.588 
   22500   -254650.41    97.368335   -254553.04    475.85232    6484.2822    16117.588 
   22600    -254652.9    96.431366   -254556.47    471.27322    6426.1063    16117.588 
   22700   -254652.68    94.165639   -254558.51    460.20031     6199.626    16117.588 
   22800      -254652    97.282034   -254554.72    475.43055    6406.1423    16117.588 
   22900   -254650.71    98.388424   -254552.32    480.83763    6589.2609    16117.588 
   23000   -254650.47    96.519545   -254553.95    471.70416    6356.7761    16117.588 
   23100   -254654.51    98.278884   -254556.23    480.30229    6500.2813    16117.588 
   23200   -254653.59    96.940128   -254556.65    473.75961    6383.8694    16117.588 
   23300   -254651.74     98.65509   -254553.08    482.14086    6497.3205    16117.588 
   23400   -254651.61    102.31116    -254549.3    500.00858    6739.9333    16117.588 
   23500   -254649.94    97.664632   -254552.27    477.30036    6430.8548    16117.588 
   23600   -254650.28    96.052202   -254554.23     469.4202    6382.0973    16117.588 
   23700   -254650.02     97.01462   -254553.01    474.12367    6527.5233    16117.588 
   23800   -254650.37    98.193426   -254552.18    479.88465    6466.2067    16117.588 
   23900   -254651.89    97.193486   -254554.69    474.99781    6399.2053    16117.588 
   24000   -254651.19    95.319871   -254555.87     465.8412    6277.0903    16117.588 
   24100   -254651.43    96.623862   -254554.81    472.21398    6363.9914    16117.588 
   24200   -254650.97    97.718797   -254553.25    477.56507    6536.0553    16117.588 
   24300   -254651.83    100.34024   -254551.49    490.37641    6659.6233    16117.588 
   24400   -254648.23     95.77623   -254552.45    468.07148    6381.3405    16117.588 
   24500   -254652.63    97.268903   -254555.36    475.36638    6406.2821    16117.588 
   24600   -254651.32    93.565132   -254557.75    457.26555    6161.6559    16117.588 
   24700   -254650.94    97.439007    -254553.5     476.1977    6413.0759    16117.588 
   24800   -254651.48    99.748288   -254551.73    487.48348    6570.8302    16117.588 
   24900   -254651.86    99.039866   -254552.82    484.02132    6581.3548    16117.588 
   25000   -254651.79    97.172759   -254554.62    474.89651    6438.2759    16117.588 
   25100    -254651.8    96.060178   -254555.74    469.45918    6402.9898    16117.588 
   25200   -254652.13    98.424965   -254553.71    481.01621    6509.5266    16117.588 
   25300   -254652.41    102.83872   -254549.57    502.58682    6808.0652    16117.588 
   25400   -254650.99    98.484997    -254552.5     481.3096    6715.0152    16117.588 
   25500   -254652.54    97.213398   -254555.32    475.09512    6430.7535    16117.588 
   25600   -254653.72    97.552832   -254556.16    476.75398    6459.6775    16117.588 
   25700   -254653.49    99.106496   -254554.39    484.34695    6529.0394    16117.588 
   25800   -254647.92    98.998422   -254548.93    483.81878    6522.6392    16117.588 
   25900   -254645.85    97.299997   -254548.55    475.51834    6408.0675    16117.588 
   26000   -254649.92    97.829067   -254552.09    478.10398    6442.1457    16117.588 
   26100   -254650.07    96.322716   -254553.75    470.74224    6339.2218    16117.588 
   26200   -254653.25    99.309438   -254553.94    485.33875    6540.3297    16117.588 
   26300   -254651.02    97.289296   -254553.73    475.46605    6403.4556    16117.588 
   26400   -254649.31    98.044119   -254551.27    479.15497    6553.0218    16117.588 
   26500   -254647.07     98.18653   -254548.88    479.85095    6518.7283    16117.588 
   26600   -254646.79    98.725701   -254548.06    482.48595    6577.4133    16117.588 
   26700   -254651.12    97.987965   -254553.13    478.88054    6617.0212    16117.588 
   26800   -254650.71     95.69883   -254555.01    467.69322    6297.2729    16117.588 
   26900   -254653.27    98.366374   -254554.91    480.72987    6563.9676    16117.588 
   27000   -254651.12    96.450988   -254554.67    471.36912    6347.8544    16117.588 
   27100   -254648.02    97.790066   -254550.23    477.91338    6464.1984    16117.588 
   27200    -254648.7    100.40507   -254548.29    490.69326     6608.485    16117.588 
   27300   -254648.95     98.10729   -254550.84    479.46369    6489.4549    16117.588 
   27400   -254646.71    94.793294   -254551.92    463.26774    6310.2407    16117.588 
   27500   -254649.14     97.04744   -254552.09    474.28406    6388.3683    16117.588 
   27600   -254651.34     97.91629   -254553.42    478.53025    6475.5671    16117.588 
   27700   -254654.13    97.295081   -254556.84    475.49432    6401.6747    16117.588 
   27800   -254650.03    92.273792   -254557.76    450.95459    6150.0847    16117.588 
   27900   -254651.71    96.620904   -254555.09    472.19952    6358.0681    16117.588 
   28000   -254648.23    96.613811   -254551.62    472.16486    6352.3362    16117.588 
   28100   -254647.31    98.107096   -254549.21    479.46275    6458.6353    16117.588 
   28200   -254650.29    99.654373   -254550.63     487.0245    6647.6518    16117.588 
   28300    -254652.4    97.551939   -254554.85    476.74961    6421.2788    16117.588 
   28400   -254652.89    96.604236   -254556.29    472.11806    6423.8925    16117.588 
   28500   -254652.04    95.766076   -254556.27    468.02186     6326.934    16117.588 
   28600   -254652.02    95.985187   -254556.03    469.09269     6381.912    16117.588 
   28700    -254652.5    98.047093   -254554.46     479.1695    6454.3359    16117.588 
   28800   -254648.66    97.781325   -254550.88    477.87066    6643.2109    16117.588 
   28900   -254649.12    100.77735   -254548.34    492.51262    6660.9585    16117.588 
   29000   -254650.34    99.926587   -254550.41    488.35484    6644.7249    16117.588 
   29100   -254649.85    95.059908   -254554.79    464.57072    6258.8757    16117.588 
   29200   -254651.24    96.534403    -254554.7    471.77678     6356.671    16117.588 
   29300   -254648.82    95.434912   -254553.38    466.40342    6281.9209    16117.588 
   29400    -254652.1    100.54669   -254551.56    491.38539     6620.337    16117.588 
   29500   -254646.99    95.005429   -254551.99    464.30448    6252.7725    16117.588 
   29600   -254650.96    94.614307   -254556.35    462.39301    6252.9868    16117.588 
   29700   -254654.29    96.272629   -254558.02    470.49746    6334.4529    16117.588 
   29800    -254651.2    95.271426   -254555.93    465.60444    6271.4824    16117.588 
   29900   -254650.45    98.694628   -254551.76    482.33409    6497.1951    16117.588 
   30000   -254649.67    98.296017   -254551.37    480.38603    6469.8785    16117.588 
   30100   -254648.17    96.104046   -254552.06    469.67357    6323.8926    16117.588 
   30200   -254650.86    97.636313   -254553.22    477.16196    6425.5735    16117.588 
   30300    -254651.7    97.181966   -254554.52    474.94151     6499.197    16117.588 
   30400   -254653.89    98.664594   -254555.22    482.18731    6494.9423    16117.588 
   30500   -254651.31    96.266849   -254555.04    470.46921    6336.9386    16117.588 
   30600   -254649.93    95.053231   -254554.87    464.53809    6320.4087    16117.588 
   30700   -254650.55    96.928697   -254553.62    473.70375    6380.8963    16117.588 
   30800   -254649.95    99.178241   -254550.77    484.69758    6528.4083    16117.588 
   30900   -254650.03    97.811341   -254552.22    478.01735    6437.2494    16117.588 
   31000   -254652.29    96.225163   -254556.07    470.26548     6333.094    16117.588 
   31100   -254654.02    97.021885      -254557    474.15917    6438.8922    16117.588 
   31200   -254652.18    95.926599   -254556.26    468.80636    6338.6159    16117.588 
   31300   -254650.57    100.27594   -254550.29    490.06218    6631.5324    16117.588 
   31400   -254648.62    99.230527   -254549.39     484.9531    6562.1106    16117.588 
   31500   -254650.13    97.740821   -254552.39    477.67271    6434.6308    16117.588 
   31600   -254651.28    95.232719   -254556.04    465.41527    6297.4911    16117.588 
   31700   -254654.02    98.100853   -254555.92    479.43223    6457.9788    16117.588 
   31800   -254653.49    98.859794   -254554.63    483.14128    6507.5957    16117.588 
   31900   -254650.25    97.176978   -254553.07    474.91713     6396.104    16117.588 
   32000   -254651.15    100.69793   -254550.45    492.12452    6630.0346    16117.588 
   32100    -254646.2    100.56125   -254545.64    491.45654    6621.4797    16117.588 
   32200   -254645.28    99.006711   -254546.28    483.85929    6587.1431    16117.588 
   32300   -254648.32    97.466991   -254550.85    476.33446    6458.0077    16117.588 
   32400   -254650.04    97.566692   -254552.47    476.82172    6423.4694    16117.588 
   32500   -254648.62    94.892834   -254553.73    463.75421    6317.5687    16117.588 
   32600   -254645.59    92.567231   -254553.02    452.38867    6129.4509    16117.588 
   32700   -254648.58    101.27251    -254547.3    494.93257    6693.9025    16117.588 
   32800   -254646.35    98.100593   -254548.25    479.43096    6454.3855    16117.588 
   32900   -254650.75    99.558307   -254551.19    486.55501    6551.3681    16117.588 
   33000   -254650.29    96.159037   -254554.13    469.94231    6349.3973    16117.588 
   33100   -254653.07    96.808781   -254556.26     473.1177    6367.8818    16117.588 
   33200   -254650.68    95.061782   -254555.62    464.57988    6283.4996    16117.588 
   33300   -254646.97    96.150703   -254550.82    469.90158    6529.0359    16117.588 
   33400   -254648.32    99.482422   -254548.84    486.18415    6622.5747    16117.588 
   33500    -254650.5    99.311762   -254551.18    485.35011    6601.7302    16117.588 
   33600   -254651.01    97.228104   -254553.78    475.16699     6401.512    16117.588 
   33700   -254652.36    96.642255   -254555.72    472.30387     6363.006    16117.588 
   33800   -254653.56    97.211768   -254556.35    475.08715     6426.926    16117.588 
   33900    -254650.8    97.042003   -254553.75    474.25749    6383.8257    16117.588 
   34000    -254648.4     98.32361   -254550.08    480.52088    6472.5612    16117.588 
   34100   -254649.73    99.766438   -254549.97    487.57218    6570.1082    16117.588 
   34200   -254652.37    99.037957   -254553.33    484.01199    6522.1233    16117.588 
   34300   -254653.62    96.680787   -254556.94    472.49218    6436.1831    16117.588 
   34400   -254653.96    97.673546   -254556.29    477.34392     6431.318    16117.588 
   34500   -254652.18    96.644435   -254555.54    472.31452    6364.4976    16117.588 
   34600   -254652.06    99.427137   -254552.63    485.91396      6546.26    16117.588 
   34700   -254651.02    97.866064   -254553.15    478.28479    6445.7879    16117.588 
   34800   -254651.54    96.927782   -254554.62    473.69928    6452.6485    16117.588 
   34900   -254653.74    98.217638   -254555.52    480.00298    6501.5602    16117.588 
   35000   -254653.29    96.121265   -254557.17    469.75772    6331.1334    16117.588 
   35100   -254651.75      94.8208   -254556.92    463.40217    6296.9226    16117.588 
   35200   -254649.91      97.0939   -254552.81    474.51112    6458.3369    16117.588 
   35300   -254650.74     100.0144   -254550.73    488.78399    6585.6639    16117.588 
   35400   -254650.31    98.671023   -254551.64    482.21873    6533.4934    16117.588 
   35500   -254650.38    94.965745   -254555.41    464.11054    6249.4595    16117.588 
   35600   -254654.49    95.862331   -254558.63    468.49227    6311.4322    16117.588 
   35700   -254654.85    92.538459   -254562.31    452.24806    6090.1337    16117.588 
   35800   -254652.74    93.787346   -254558.96    458.35154    6288.7633    16117.588 
   35900   -254652.37    97.546628   -254554.82    476.72366    6425.2263    16117.588 
   36000   -254650.84    96.605926   -254554.23    472.12632    6483.1907    16117.588 
   36100   -254652.21    97.757334   -254554.45    477.75341    6438.3333    16117.588 
   36200    -254651.2    94.249315   -254556.95    460.60924     6204.074    16117.588 
   36300   -254657.62    97.844163   -254559.77    478.17775    6445.5644    16117.588 
   36400   -254655.68    93.475443   -254562.21    456.82722     6155.812    16117.588 
   36500   -254654.88    95.062479   -254559.82    464.58329    6258.9296    16117.588 
   36600   -254654.39     99.33889   -254555.06    485.48269    6602.9976    16117.588 
   36700   -254652.12    98.440497   -254553.68    481.09212    6483.1912    16117.588 
   36800   -254653.84    98.297405   -254555.54    480.39281    6505.0511    16117.588 
   36900   -254653.46    95.115618   -254558.34    464.84298    6263.8925    16117.588 
   37000   -254655.52    94.647285   -254560.88    462.55418     6233.102    16117.588 
   37100   -254654.63    97.004625   -254557.62    474.07482    6438.7924    16117.588 
   37200   -254651.64    98.371117   -254553.27    480.75305    6478.4371    16117.588 
   37300   -254651.25    99.048431    -254552.2    484.06318    6522.0671    16117.588 
   37400   -254650.26    98.251205   -254552.01    480.16702    6531.8797    16117.588 
   37500   -254654.22     99.81894    -254554.4    487.82876    6575.2422    16117.588 
   37600    -254653.2    94.966427   -254558.24    464.11387    6253.4627    16117.588 
   37700   -254649.82    93.959466   -254555.86    459.19271    6178.8008    16117.588 
   37800   -254650.32    97.091624   -254553.23    474.49999    6393.3418    16117.588 
   37900      -254653    99.413142   -254553.59    485.84557    6593.9628    16117.588 
   38000   -254652.64    97.159675   -254555.48    474.83257    6394.6818    16117.588 
   38100   -254651.73    94.305647   -254557.43    460.88454    6209.0944    16117.588 
   38200   -254655.05     98.30319   -254556.74    480.42108    6468.2255    16117.588 
   38300   -254653.85    96.911486   -254556.94    473.61964    6369.5418    16117.588 
   38400   -254653.92    95.723028   -254558.19    467.81148     6377.238    16117.588 
   38500   -254654.95    95.655565    -254559.3    467.48178    6625.5541    16117.588 
   38600   -254655.36    96.741105   -254558.61    472.78696    6369.7901    16117.588 
   38700   -254652.35    98.209332   -254554.14    479.96238    6502.7889    16117.588 
   38800   -254652.15    99.184397   -254552.97    484.72766    6570.3229    16117.588 
   38900   -254652.25    98.619987   -254553.63    481.96931    6494.0022    16117.588 
   39000   -254650.75    93.724181   -254557.02    458.04284    6281.1779    16117.588 
   39100   -254653.54    93.548906   -254559.99    457.18625     6157.774    16117.588 
   39200   -254654.64    96.685634   -254557.96    472.51586    6510.0491    16117.588 
   39300   -254651.02    98.594711   -254552.43    481.84579     6593.282    16117.588 
   39400   -254649.08     96.08781   -254552.99    469.59422    6325.8953    16117.588 
   39500   -254650.89    96.905814   -254553.98    473.59191    6379.2936    16117.588 
   39600   -254653.46    97.906936   -254555.55    478.48453    6474.7355    16117.588 
   39700    -254655.7    95.173525   -254560.52    465.12598    6295.2314    16117.588 
   39800   -254654.34    92.736728    -254561.6    453.21702     6102.016    16117.588 
   39900    -254653.4    95.428121   -254557.97    466.37023    6312.5438    16117.588 
   40000   -254654.66    98.921774   -254555.74    483.44419     6543.311    16117.588 
   40100   -254651.93    96.235715   -254555.69    470.31705    6462.5425    16117.588 
   40200   -254652.93    97.316857   -254555.61    475.60074    6457.2856    16117.588 
   40300   -254651.49    97.719526   -254553.77    477.56864    6429.3805    16117.588 
   40400   -254650.69    99.057332   -254551.63    484.10668    6517.4756    16117.588 
   40500   -254650.67    98.530213   -254552.14    481.53058    6678.8469    16117.588 
   40600   -254655.58    98.768917   -254556.81    482.69715    6597.7273    16117.588 
   40700   -254654.42    96.663819   -254557.75    472.40925    6389.6748    16117.588 
   40800   -254652.42    96.645304   -254555.77    472.31877    6399.5038    16117.588 
   40900   -254653.88    100.10545   -254553.77    489.22897    6587.6488    16117.588 
   41000   -254652.98      96.9752   -254556.01    473.93101    6382.4152    16117.588 
   41100   -254655.62    94.363914   -254561.25     461.1693    6264.1293    16117.588 
   41200   -254654.12    94.267893   -254559.86    460.70004    6244.2956    16117.588 
   41300   -254651.87    96.532669   -254555.33    471.76831    6380.2424    16117.588 
   41400   -254650.58    97.246319   -254553.33    475.25601    6389.0426    16117.588 
   41500   -254649.74     96.97343   -254552.76    473.92236    6432.7349    16117.588 
   41600   -254649.71    98.342576   -254551.36    480.61357    6474.9361    16117.588 
   41700   -254649.64    102.24571   -254547.39    499.68871    6759.0386    16117.588 
   41800   -254645.95    98.950933      -254547    483.58669    6514.2742    16117.588 
   41900   -254648.72    95.685191   -254553.03    467.62656    6402.7322    16117.588 
   42000   -254650.86     96.85158      -254554    473.32687    6343.5348    16117.588 
   42100   -254649.97    97.778013   -254552.19    477.85447    6433.3857    16117.588 
   42200   -254647.95    97.876711   -254550.07    478.33682     6475.423    16117.588 
   42300   -254649.89    101.57008   -254548.32    496.38681    6687.6627    16117.588 
   42400    -254650.2    100.62122   -254549.57    491.74961    6624.3909    16117.588 
   42500   -254652.98     96.88021    -254556.1    473.46678    6377.9163    16117.588 
   42600   -254653.66    96.645423   -254557.01    472.31935    6388.3663    16117.588 
   42700   -254653.23    97.953501   -254555.27     478.7121    6448.4918    16117.588 
   42800    -254652.6     98.27469   -254554.32     480.2818    6593.5496    16117.588 
   42900   -254652.02    97.952145   -254554.07    478.70548    6443.2231    16117.588 
   43000   -254654.41    99.155149   -254555.25    484.58472    6525.0833    16117.588 
   43100   -254652.28    93.432396   -254558.85    456.61685    6190.3212    16117.588 
   43200   -254652.16     92.81723   -254559.34    453.61045    6175.7203    16117.588 
   43300   -254657.35    101.38145   -254555.96    495.46496    6675.2368    16117.588 
   43400   -254650.39    98.023934   -254552.37    479.05632    6453.0209    16117.588 
   43500   -254651.89    99.384941    -254552.5    485.70775    6611.2427    16117.588 
   43600   -254651.43    98.329707    -254553.1    480.55067    6472.7269    16117.588 
   43700   -254649.02    95.757313   -254553.27    467.97904    6303.8909    16117.588 
   43800   -254651.25    99.619088   -254551.63    486.85205     6559.536    16117.588 
   43900   -254649.96    99.117174   -254550.84    484.39913    6526.4713    16117.588 
   44000   -254651.17    96.210293   -254554.96    470.19281    6470.3153    16117.588 
   44100   -254653.08     95.40163   -254557.68    466.24076    6281.6028    16117.588 
   44200   -254651.19    95.321787   -254555.87    465.85056    6273.5931    16117.588 
   44300   -254651.38    99.192248   -254552.18    484.76603    6575.6284    16117.588 
   44400   -254649.96    97.915395   -254552.04    478.52588    6443.7938    16117.588 
   44500   -254649.61    95.721807   -254553.89    467.80551    6300.1421    16117.588 
   44600   -254648.42    94.128661   -254554.29    460.01959    6190.1864    16117.588 
   44700   -254649.27     99.28392   -254549.99    485.21404    6601.5597    16117.588 
   44800   -254648.87    100.80151   -254548.07    492.63072    6632.8351    16117.588 
   44900   -254647.56    97.432151   -254550.13     476.1642    6462.2367    16117.588 
   45000   -254648.85    96.829143   -254552.02    473.21721    6399.6144    16117.588 
   45100   -254651.51     96.55675   -254554.96    471.88599     6357.891    16117.588 
   45200   -254651.63    94.960282   -254556.67    464.08384    6251.4687    16117.588 
   45300   -254653.73    97.947923   -254555.79    478.68484    6480.9764    16117.588 
   45400   -254650.81    99.358944   -254551.45     485.5807    6541.4342    16117.588 
   45500   -254653.27    104.02099   -254549.24    508.36473    6876.8673    16117.588 
   45600   -254650.51    96.499535   -254554.01    471.60638    6352.6148    16117.588 
   45700   -254652.51    95.871711   -254556.64    468.53811    6394.5166    16117.588 
   45800   -254651.68    96.053743   -254555.62    469.42773    6371.3049    16117.588 
   45900   -254653.37    100.02884   -254553.34    488.85458    6588.2482    16117.588 
   46000   -254648.32    97.095777   -254551.22    474.52029    6451.6947    16117.588 
   46100    -254647.8    100.42036   -254547.38      490.768    6643.0487    16117.588 
   46200   -254647.55    102.70442   -254544.85    501.93052    6794.4319    16117.588 
   46300   -254651.46    100.95641   -254550.51    493.38773     6648.985    16117.588 
   46400   -254648.49    95.202285   -254553.29    465.26654     6268.572    16117.588 
   46500   -254649.84    95.497882   -254554.35    466.71116     6288.665    16117.588 
   46600   -254650.33    96.911914   -254553.42    473.62172     6382.966    16117.588 
   46700   -254649.94     95.64017    -254554.3    467.40654    6298.2438    16117.588 
   46800   -254651.82    94.940656   -254556.88    463.98792    6293.0854    16117.588 
   46900   -254652.81    94.897025   -254557.91    463.77469    6278.4422    16117.588 
   47000   -254652.66    98.661047      -254554    482.16998    6555.7857    16117.588 
   47100   -254649.65    97.222119   -254552.43    475.13774    6403.8826    16117.588 
   47200   -254654.94    98.639348    -254556.3    482.06393    6498.5576    16117.588 
   47300   -254653.22    92.519804    -254560.7    452.15689    6093.5169    16117.588 
   47400   -254654.64    95.378279   -254559.26    466.12665     6280.737    16117.588 
   47500    -254654.4     97.92104   -254556.48    478.55347    6449.9126    16117.588 
   47600   -254652.68    98.123443   -254554.56    479.54263    6491.2747    16117.588 
   47700   -254651.86    96.028067   -254555.83    469.30225     6325.499    16117.588 
   47800   -254658.53    96.916993   -254561.62    473.64655    6385.0149    16117.588 
   47900   -254656.89    95.449839   -254561.44    466.47637    6288.4029    16117.588 
   48000   -254656.52    98.596786   -254557.93    481.85593    6496.6993    16117.588 
   48100   -254654.15    97.803305   -254556.34    477.97808    6553.3442    16117.588 
   48200   -254651.59    94.958829   -254556.63    464.07673    6534.5661    16117.588 
   48300   -254652.22    97.561334   -254554.65    476.79553    6426.0846    16117.588 
   48400   -254649.54    100.21406   -254549.33    489.75974    6605.1484    16117.588 
   48500   -254651.52    101.13277   -254550.38    494.24965    6661.3501    16117.588 
   48600   -254650.82    96.213897   -254554.61    470.21042     6338.345    16117.588 
   48700   -254651.34     95.51795   -254555.82    466.80924    6327.5675    16117.588 
   48800   -254652.21    97.182107   -254555.03     474.9422    6465.1636    16117.588 
   48900   -254652.55    97.064657   -254555.48     474.3682    6499.1973    16117.588 
   49000   -254654.71    95.009266    -254559.7    464.32323    6260.0653    16117.588 
   49100   -254655.02    95.577808   -254559.44    467.10177     6296.824    16117.588 
   49200    -254651.7    97.101784    -254554.6    474.54965    6399.5145    16117.588 
   49300   -254651.15    97.672512   -254553.48    477.33887     6520.142    16117.588 
   49400   -254650.07    97.529956   -254552.54    476.64218    6488.4247    16117.588 
   49500   -254652.03    99.660651   -254552.37    487.05518    6567.4569    16117.588 
   49600   -254655.07    98.281004   -254556.79    480.31266    6476.7872    16117.588 
   49700   -254654.22    95.200571   -254559.02    465.25816    6333.4947    16117.588 
   49800   -254654.52    96.077446   -254558.44    469.54357    6331.9075    16117.588 
   49900   -254654.01    98.321267   -254555.69    480.50943    6507.7807    16117.588 
   50000   -254648.69    96.628748   -254552.06    472.23786     6387.349    16117.588 
   50100   -254650.32    103.24876   -254547.07    504.59074    6803.3304    16117.588 
   50200    -254648.8    98.891533   -254549.91    483.29639    6540.6119    16117.588 
   50300    -254653.7    99.071301   -254554.63    484.17494    6526.9173    16117.588 
   50400   -254655.76    98.289024   -254557.47    480.35185    6520.9743    16117.588 
   50500   -254652.86    94.698774   -254558.17    462.80581    6280.2342    16117.588 
   50600    -254652.1     94.85553   -254557.25     463.5719    6304.8571    16117.588 
   50700    -254650.8    99.056014   -254551.74    484.10024     6529.221    16117.588 
   50800   -254648.43     97.36674   -254551.07    475.84452    6480.0848    16117.588 
   50900   -254650.37    97.193446   -254553.18    474.99761    6404.4384    16117.588 
   51000   -254651.74    95.998963   -254555.75    469.16001    6375.2801    16117.588 
   51100   -254651.78    95.459466   -254556.32    466.52341    6324.6891    16117.588 
   51200   -254653.98    98.220677   -254555.75    480.01783    6466.9241    16117.588 
   51300   -254651.26    96.917513   -254554.34    473.64909    6382.4068    16117.588 
   51400   -254649.22    96.586672   -254552.63    472.03222    6410.0906    16117.588 
   51500   -254650.54    100.41695   -254550.12     490.7513    6740.5017    16117.588 
   51600   -254647.47    95.278373   -254552.19    465.63839    6274.3908    16117.588 
   51700   -254652.24    95.575374   -254556.66    467.08987    6295.4039    16117.588 
   51800   -254652.26    95.009783   -254557.25    464.32575    6254.3963    16117.588 
   51900   -254653.38    97.332238   -254556.05    475.67591    6441.2702    16117.588 
   52000   -254654.86    100.48416   -254554.37    491.07976    6622.6307    16117.588 
   52100   -254655.47    97.325019   -254558.15    475.64063    6409.2115    16117.588 
   52200   -254656.78    94.724291   -254562.06    462.93052    6353.2534    16117.588 
   52300    -254656.8    96.336648   -254560.47    470.81033    6372.0093    16117.588 
   52400   -254654.47    98.004967   -254556.46    478.96363    6457.5935    16117.588 
   52500   -254651.32    96.411174   -254554.91    471.17454    6350.3933    16117.588 
   52600   -254650.93    97.506092   -254553.42    476.52555    6422.8879    16117.588 
   52700   -254650.18    96.986153   -254553.19    473.98454      6388.29    16117.588 
   52800   -254648.95    94.876237   -254554.08     463.6731    6333.6512    16117.588 
   52900   -254654.63    98.155737   -254556.47    479.70046    6539.0186    16117.588 
   53000   -254653.83    95.665828   -254558.16    467.53193    6301.2622    16117.588 
   53100   -254653.54    96.902678   -254556.64    473.57659    6570.9393    16117.588 
   53200   -254652.03    98.675236   -254553.35    482.23932    6497.7318    16117.588 
   53300   -254649.19    96.993242    -254552.2    474.01919    6384.4495    16117.588 
   53400    -254649.9     97.37987   -254552.52    475.90869    6408.6113    16117.588 
   53500   -254651.97    99.412603   -254552.56    485.84294    6606.8322    16117.588 
   53600   -254650.93    94.328004    -254556.6    460.99381    6303.3271    16117.588 
   53700    -254653.4    95.668386   -254557.73    467.54443    6338.2969    16117.588 
   53800   -254652.99    96.491479    -254556.5      471.567    6478.9586    16117.588 
   53900   -254649.85    98.177701   -254551.67     479.8078    6563.7149    16117.588 
   54000   -254650.12    98.927945    -254551.2    483.47434    6516.3548    16117.588 
   54100   -254649.26    97.545202   -254551.71    476.71669    6474.2054    16117.588 
   54200   -254649.26    97.278274   -254551.98    475.41218    6552.5203    16117.588 
   54300   -254650.76    96.844159   -254553.92     473.2906    6372.0565    16117.588 
   54400   -254652.38     93.64989   -254558.73    457.67977    6318.2108    16117.588 
   54500   -254653.73    97.019015   -254556.71    474.14514    6422.7051    16117.588 
   54600   -254651.95    97.968686   -254553.98    478.78632    6450.5438    16117.588 
   54700   -254655.99    101.53213   -254554.46    496.20134     6685.418    16117.588 
   54800   -254656.46    95.898257   -254560.56    468.66785    6391.4956    16117.588 
   54900   -254652.69    92.593645   -254560.09    452.51776     6123.749    16117.588 
   55000   -254653.18    96.168359   -254557.02    469.98787    6452.1934    16117.588 
   55100   -254652.98    97.741369   -254555.24    477.67539    6458.9497    16117.588 
   55200   -254650.52    95.198521   -254555.33    465.24814    6421.0746    16117.588 
   55300   -254650.78    99.574924   -254551.21    486.63622    6557.3556    16117.588 
   55400   -254648.95     100.3322   -254548.62    490.33713    6669.1408    16117.588 
   55500   -254650.68    98.380021    -254552.3    480.79656    6513.6363    16117.588 
   55600   -254651.77    96.876665   -254554.89    473.44946    6430.7277    16117.588 
   55700   -254650.76    96.391365   -254554.37    471.07773    6346.9276    16117.588 
   55800   -254649.63    95.813695   -254553.82    468.25458    6362.4653    16117.588 
   55900   -254653.48    99.699156   -254553.78    487.24336    6565.9934    16117.588 
   56000    -254655.6    98.805124    -254556.8     482.8741    6506.6387    16117.588 
   56100    -254654.7    95.058599   -254559.64    464.56432    6278.9895    16117.588 
   56200   -254656.44    97.661897   -254558.78      477.287    6497.6255    16117.588 
   56300   -254653.16    98.910151   -254554.25    483.38739    6506.8874    16117.588 
   56400   -254652.01    98.625947   -254553.38    481.99844    6492.1688    16117.588 
   56500   -254651.14    97.326025   -254553.82    475.64554    6450.0994    16117.588 
   56600   -254650.41    96.176099   -254554.24     470.0257    6442.1367    16117.588 
   56700   -254649.23    94.050842   -254555.18    459.63928    6277.5459    16117.588 
   56800   -254652.15    95.697712   -254556.45    467.68775    6434.6988    16117.588 
   56900   -254653.31    95.307527      -254558    465.78087    6271.2967    16117.588 
   57000   -254654.03    97.836394   -254556.19    478.13979    6523.6135    16117.588 
   57100   -254649.25    97.162346   -254552.09    474.84562    6434.0437    16117.588 
   57200   -254653.39    101.39698      -254552    495.54085    6766.6515    16117.588 
   57300    -254653.1    97.667546   -254555.43     477.3146    6428.3151    16117.588 
   57400   -254655.03    98.066133   -254556.96    479.26255    6484.2671    16117.588 
   57500   -254652.86    97.032517   -254555.82    474.21113    6389.3091    16117.588 
   57600   -254652.28    99.657239   -254552.63    487.03851    6556.9758    16117.588 
   57700   -254652.78    98.755802   -254554.02    482.63306    6586.3141    16117.588 
   57800   -254650.98     93.94466   -254557.04    459.12035    6200.1618    16117.588 
   57900   -254652.37    96.265068   -254556.11     470.4605    6358.2214    16117.588 
   58000   -254649.08    99.518133   -254549.56    486.35868    6748.6784    16117.588 
   58100   -254650.08    98.984103   -254551.09     483.7488     6603.858    16117.588 
   58200   -254649.13    94.903706   -254554.22    463.80734    6242.2473    16117.588 
   58300   -254651.21    96.055246   -254555.16    469.43507    6386.7832    16117.588 
   58400   -254650.17    97.118736   -254553.05     474.6325      6391.22    16117.588 
   58500   -254651.12    102.29528   -254548.83    499.93099    6735.7284    16117.588 
   58600   -254648.82    98.240198   -254550.58    480.11323    6511.6384    16117.588 
   58700    -254651.8    96.355452   -254555.44    470.90222    6341.2512    16117.588 
   58800   -254652.12    97.163622   -254554.95    474.85186    6436.3399    16117.588 
   58900   -254650.57    97.258677   -254553.31    475.31641    6401.1338    16117.588 
   59000   -254649.53    98.540992   -254550.99    481.58326    6585.1875    16117.588 
   59100   -254649.36    96.368884   -254552.99    470.96787    6343.7568    16117.588 
   59200   -254651.38    94.321742   -254557.06     460.9632    6428.5948    16117.588 
   59300   -254653.73    95.961792   -254557.77    468.97835    6314.4766    16117.588 
   59400   -254651.32    96.411998    -254554.9    471.17857     6344.616    16117.588 
   59500   -254646.88    97.362102   -254549.52    475.82186    6406.8771    16117.588 
   59600   -254648.88    97.094645   -254551.79    474.51476    6385.3071    16117.588 
   59700   -254651.49    96.597635   -254554.89     472.0858     6382.271    16117.588 
   59800   -254652.83    97.908585   -254554.92    478.49259     6444.471    16117.588 
   59900   -254651.93    97.977807   -254553.96    478.83089    6448.3865    16117.588 
   60000   -254651.13    100.84673   -254550.28     492.8517    6689.4539    16117.588 
   60100   -254651.46    100.52795   -254550.94    491.29381    6617.7912    16117.588 
   60200   -254650.37    95.437603   -254554.94    466.41657    6370.5731    16117.588 
   60300   -254651.13    95.357716   -254555.77    466.02615     6338.569    16117.588 
   60400   -254651.33    97.121195   -254554.21    474.64451    6391.2633    16117.588 
   60500   -254650.47    96.650164   -254553.82    472.34252    6403.1637    16117.588 
   60600   -254650.27    96.122148   -254554.15    469.76203    6327.4745    16117.588 
   60700   -254653.35    96.094359   -254557.25    469.62622    6346.8286    16117.588 
   60800   -254655.35    97.198933   -254558.15    475.02443    6398.0457    16117.588 
   60900   -254654.21    98.271423   -254555.94    480.26584    6470.2141    16117.588 
   61000   -254651.29    98.076086   -254553.21     479.3112    6457.9892    16117.588 
   61100   -254650.24    99.383761   -254550.85    485.70198    6665.4676    16117.588 
   61200   -254648.77    101.07617   -254547.69      493.973    6656.5401    16117.588 
   61300    -254647.7    100.39195   -254547.31    490.62915    6608.6792    16117.588 
   61400   -254651.56    98.858742    -254552.7    483.13614    6505.1745    16117.588 
   61500   -254651.08    96.434685   -254554.65    471.28944      6422.05    16117.588 
   61600    -254652.2    97.856616   -254554.34    478.23861    6442.0927    16117.588 
   61700   -254649.61    97.729745   -254551.88    477.61858     6456.872    16117.588 
   61800   -254646.23    98.557481   -254547.67    481.66384    6488.5278    16117.588 
   61900   -254646.91     97.91628      -254549     478.5302    6511.8236    16117.588 
   62000   -254651.75    97.695575   -254554.05    477.45159    6660.3659    16117.588 
   62100   -254651.17    95.903067   -254555.26    468.69135    6338.9182    16117.588 
   62200   -254649.96    94.982528   -254554.98    464.19256    6251.8393    16117.588 
   62300    -254650.3    97.963667   -254552.33    478.76179    6449.4439    16117.588 
   62400   -254647.29    96.723883   -254550.57     472.7028     6404.444    16117.588 
   62500   -254650.77      99.0515   -254551.72    484.07818    6587.7125    16117.588 
   62600   -254652.25    95.637198   -254556.61    467.39202    6336.4028    16117.588 
   62700   -254653.08     96.38967   -254556.69    471.06945    6343.3538    16117.588 
   62800   -254651.31    97.112776    -254554.2    474.60337    6472.4961    16117.588 
   62900   -254649.82    98.729227    -254551.1    482.50318    6498.2683    16117.588 
   63000   -254648.03    99.620324   -254548.41     486.8581    6556.6378    16117.588 
   63100   -254648.81    98.144695   -254550.66     479.6465    6509.2211    16117.588 
   63200   -254650.96    95.618562   -254555.34    467.30094    6292.8699    16117.588 
   63300   -254654.64    98.540055    -254556.1    481.57867    6539.8893    16117.588 
   63400   -254652.61    96.999256   -254555.61    474.04858    6462.9708    16117.588 
   63500   -254651.43    100.47348   -254550.96    491.02759    6716.2708    16117.588 
   63600   -254646.83    97.768954   -254549.07     477.8102    6484.4105    16117.588 
   63700   -254650.45    99.409975   -254551.04    485.83009    6544.1459    16117.588 
   63800   -254650.65    95.989883   -254554.66    469.11563    6309.7253    16117.588 
   63900   -254651.57    95.428649   -254556.14    466.37281    6418.3347    16117.588 
   64000   -254653.13    97.274955   -254555.85    475.39596    6402.4723    16117.588 
   64100   -254652.08    99.662874   -254552.42    487.06604    6597.1745    16117.588 
   64200   -254652.54    102.16531   -254550.38    499.29579    6724.4606    16117.588 
   64300   -254653.27    98.291162   -254554.98     480.3623    6471.7255    16117.588 
   64400   -254651.25    93.331131   -254557.92    456.12195     6221.861    16117.588 
   64500   -254647.96    93.045927   -254554.92    454.72812    6167.8199    16117.588 
   64600   -254647.43    96.066697   -254551.36    469.49104    6383.5156    16117.588 
   64700   -254649.65    99.391627   -254550.26    485.74042    6544.6899    16117.588 
   64800   -254648.26    95.150779   -254553.11    465.01482    6261.9204    16117.588 
   64900   -254652.48     95.47389      -254557    466.59391    6285.5213    16117.588 
   65000   -254655.25    94.166749   -254561.08    460.20573    6199.0382    16117.588 
   65100   -254657.28    96.712559   -254560.57    472.64745    6404.8329    16117.588 
   65200   -254656.37    98.605345   -254557.77    481.89775    6490.7945    16117.588 
   65300   -254653.72    98.486344   -254555.23    481.31618     6480.824    16117.588 
   65400   -254650.62    96.546638   -254554.08    471.83657    6354.0891    16117.588 
   65500   -254655.16    101.01376   -254554.14    493.66799     6648.815    16117.588 
   65600   -254650.66    93.411076   -254557.25    456.51266    6254.4822    16117.588 
   65700   -254652.85    94.671489   -254558.17    462.67247    6283.5921    16117.588 
   65800   -254653.02    98.000462   -254555.02    478.94161    6486.2559    16117.588 
   65900   -254650.75     98.60602   -254552.14    481.90105    6703.9593    16117.588 
   66000   -254651.07     98.03289   -254553.04    479.10009    6478.7681    16117.588 
   66100   -254652.69    97.591343    -254555.1    476.94219    6418.6158    16117.588 
   66200   -254651.96    94.580454   -254557.38    462.22757     6251.684    16117.588 
   66300   -254653.06    96.557914    -254556.5    471.89168    6383.6044    16117.588 
   66400   -254656.34    100.50946   -254555.83    491.20341    6652.7536    16117.588 
   66500   -254652.61    96.716754   -254555.89    472.66795    6416.3507    16117.588 
   66600   -254650.94    96.617964   -254554.32    472.18515    6360.8915    16117.588 
   66700   -254650.06    100.18216   -254549.88    489.60388    6597.5289    16117.588 
   66800   -254650.34    101.02015   -254549.32    493.69925    6647.7408    16117.588 
   66900   -254650.95    97.293839   -254553.66    475.48825    6528.0393    16117.588 
   67000   -254651.02     95.76964   -254555.25    468.03928    6303.5284    16117.588 
   67100    -254653.2    97.505164    -254555.7    476.52102     6473.102    16117.588 
   67200   -254650.69    93.809632   -254556.88    458.46045    6273.0382    16117.588 
   67300   -254653.01    96.427213   -254556.58    471.25293    6349.2919    16117.588 
   67400   -254652.46    99.377533   -254553.09    485.67154    6544.6523    16117.588 
   67500   -254649.25    98.135794   -254551.12      479.603    6557.6326    16117.588 
   67600   -254650.61    99.158134   -254551.45    484.59931    6529.6587    16117.588 
   67700      -254649    97.294124    -254551.7    475.48964    6406.8401    16117.588 
   67800   -254651.19    96.236096   -254554.96    470.31891    6334.5674    16117.588 
   67900   -254651.89    95.597449    -254556.3    467.19776    6292.4759    16117.588 
   68000   -254653.54     99.38411   -254554.16    485.70369    6637.0171    16117.588 
   68100   -254649.73    99.513845   -254550.22    486.33772    6587.6269    16117.588 
   68200   -254648.09    97.997822    -254550.1    478.92871    6478.8049    16117.588 
   68300   -254652.24    96.635892    -254555.6    472.27277    6363.6729    16117.588 
   68400   -254652.74    96.463742   -254556.28    471.43145    6350.2523    16117.588 
   68500    -254652.7    99.137675   -254553.56    484.49933    6552.6235    16117.588 
   68600   -254650.84    98.784189   -254552.05    482.77179     6553.675    16117.588 
   68700   -254649.87    96.979695   -254552.89    473.95298     6453.028    16117.588 
   68800   -254654.55    95.949726    -254558.6    468.91938    6315.8078    16117.588 
   68900   -254654.35     95.07419   -254559.28    464.64052     6283.156    16117.588 
   69000   -254652.34    97.733573    -254554.6    477.63729    6434.1006    16117.588 
   69100   -254648.77    96.916625   -254551.86    473.64475    6379.2364    16117.588 
   69200   -254652.02    98.370219   -254553.65    480.74866    6477.9109    16117.588 
   69300   -254652.27    96.793094   -254555.48    473.04104    6370.5144    16117.588 
   69400   -254652.35    97.398983   -254554.95     476.0021    6411.9095    16117.588 
   69500   -254649.22    98.912795   -254550.31    483.40031    6540.3817    16117.588 
   69600   -254648.93    100.63099    -254548.3    491.79738    6665.5761    16117.588 
   69700   -254649.08    96.479525    -254552.6    471.50858    6354.2526    16117.588 
   69800   -254650.15    95.611437   -254554.54    467.26612    6294.5967    16117.588 
   69900   -254652.56    97.266338   -254555.29    475.35385    6406.8401    16117.588 
   70000   -254651.98    95.106494   -254556.88     464.7984    6354.4709    16117.588 
   70100   -254655.26    96.482973   -254558.77    471.52544    6398.2561    16117.588 
   70200   -254653.68    94.447768   -254559.23    461.57911    6220.6864    16117.588 
   70300   -254654.31    97.534152   -254556.78    476.66269    6424.0591    16117.588 
   70400   -254652.39     98.73767   -254553.65    482.54445    6606.6049    16117.588 
   70500   -254648.97    97.065679    -254551.9     474.3732    6391.6483    16117.588 
   70600   -254650.22    101.59195   -254548.62     496.4937    6693.4477    16117.588 
   70700   -254648.02    102.39791   -254545.63    500.43254    6791.2715    16117.588 
   70800   -254649.51     97.57691   -254551.93    476.87165    6426.1007    16117.588 
   70900   -254650.05    95.929706   -254554.12    468.82154     6344.109    16117.588 
   71000   -254651.45    97.131633   -254554.32    474.69552    6445.9059    16117.588 
   71100   -254649.97    96.949331   -254553.02    473.80459    6386.5017    16117.588 
   71200   -254650.37    100.71876   -254549.65    492.22633    6668.9294    16117.588 
   71300   -254649.47    99.204447   -254550.27    484.82565    6533.8848    16117.588 
   71400   -254652.35    96.423725   -254555.92    471.23588    6484.4797    16117.588 
   71500   -254652.93    96.744535   -254556.18    472.80372    6374.5835    16117.588 
   71600   -254651.35    96.755911   -254554.59    472.85932    6476.2419    16117.588 
   71700   -254648.22    97.177462   -254551.05     474.9195    6402.3441    16117.588 
   71800   -254646.62    97.180254   -254549.44    474.93314    6486.4054    16117.588 
   71900   -254651.81    99.353372   -254552.46    485.55347    6545.2426    16117.588 
   72000   -254653.38    99.020519   -254554.36    483.92677    6579.5441    16117.588 
   72100   -254652.04       95.963   -254556.08    468.98426    6319.4174    16117.588 
   72200   -254652.68    97.381964    -254555.3    475.91893    6493.1914    16117.588 
   72300    -254651.3     97.86202   -254553.44    478.26502    6445.2686    16117.588 
   72400   -254648.73    99.390905   -254549.34     485.7369    6545.1257    16117.588 
   72500   -254650.68    98.919509   -254551.76    483.43312    6513.0498    16117.588 
   72600   -254649.44     94.43895      -254555    461.53601    6218.4939    16117.588 
   72700   -254653.18    97.379884    -254555.8    475.90876    6414.4887    16117.588 
   72800   -254652.03    93.689747   -254558.34    457.87456    6195.3984    16117.588 
   72900   -254655.82    97.970432   -254557.85    478.79485    6450.5575    16117.588 
   73000   -254650.66    98.301693   -254552.36    480.41377    6607.6625    16117.588 
   73100   -254650.97    100.43507   -254550.54    490.83988    6613.9931    16117.588 
   73200    -254649.4    96.946433   -254552.45    473.79043    6422.6381    16117.588 
   73300   -254652.96    97.022449   -254555.94    474.16193    6387.0229    16117.588 
   73400   -254652.74    95.275973   -254557.46    465.62666    6271.7806    16117.588 
   73500   -254651.91    95.854607   -254556.05    468.45452    6384.6215    16117.588 
   73600      -254652    97.549967   -254554.45    476.73998    6420.8413    16117.588 
   73700   -254652.95    97.623637   -254555.33    477.10001    6427.4179    16117.588 
   73800   -254652.57    93.487872   -254559.08    456.88797    6178.8308    16117.588 
   73900   -254652.88    91.817092   -254561.07    448.72264    6089.5463    16117.588 
   74000   -254653.07    97.397923   -254555.67    475.99692    6446.5736    16117.588 
   74100   -254652.42     99.23564   -254553.18    484.97809    6571.8606    16117.588 
   74200   -254648.58    94.599697   -254553.98    462.32161    6223.9383    16117.588 
   74300   -254654.59    100.51308   -254554.08    491.22114    6617.0183    16117.588 
   74400   -254655.64     97.52043   -254558.12    476.59563    6459.1268    16117.588 
   74500   -254655.26    95.316098   -254559.95    465.82276    6312.3478    16117.588 
   74600   -254655.41    97.018889   -254558.39    474.14453    6409.7208    16117.588 
   74700   -254656.72    99.113195   -254557.61    484.37969    6595.8154    16117.588 
   74800   -254654.63    98.830312    -254555.8     482.9972    6534.7956    16117.588 
   74900   -254653.78    99.910228   -254553.87    488.27489    6674.9394    16117.588 
   75000   -254650.35    96.570706   -254553.78     471.9542    6356.2785    16117.588 
   75100   -254652.12    97.307525   -254554.81    475.55513    6456.0088    16117.588 
   75200   -254653.87     94.19901   -254559.67     460.3634    6287.1084    16117.588 
   75300   -254656.51    95.861342   -254560.65    468.48744    6310.4831    16117.588 
   75400   -254653.34    94.513284   -254558.82     461.8993    6219.9088    16117.588 
   75500   -254652.55    98.135559   -254554.42    479.60185    6507.9828    16117.588 
   75600   -254650.65    97.483226   -254553.17    476.41381    6450.4814    16117.588 
   75700   -254650.31    95.747236   -254554.56    467.92978    6302.4724    16117.588 
   75800   -254653.15    95.374412   -254557.77    466.10774    6377.6935    16117.588 
   75900   -254656.05     97.00948   -254559.04    474.09854    6386.8773    16117.588 
   76000   -254655.71    96.892409   -254558.82     473.5264    6376.8132    16117.588 
   76100   -254652.03    99.286485   -254552.75    485.22658    6599.0006    16117.588 
   76200   -254649.83    98.900162   -254550.93    483.33857    6533.5091    16117.588 
   76300   -254652.88    99.424875   -254553.46    485.90291    6575.9633    16117.588 
   76400   -254652.41    95.471764   -254556.94    466.58352     6338.976    16117.588 
   76500    -254654.1    94.734613   -254559.36    462.98096    6333.0406    16117.588 
   76600   -254650.67    92.278092    -254558.4    450.97561    6098.5808    16117.588 
   76700   -254653.89    96.557775   -254557.33      471.891    6354.3324    16117.588 
   76800   -254653.47    96.411295   -254557.06    471.17513    6345.1856    16117.588 
   76900    -254652.2    96.126819   -254556.07    469.78486    6324.7451    16117.588 
   77000   -254651.72     95.55544   -254556.17    466.99246    6288.2492    16117.588 
   77100   -254654.86    96.767159   -254558.09    472.91429    6408.8998    16117.588 
   77200   -254655.78    96.136108   -254559.64    469.83026    6362.0469    16117.588 
   77300    -254651.8    94.158286   -254557.64    460.16437    6194.5912    16117.588 
   77400   -254652.81    99.887304   -254552.92    488.16287    6696.1332    16117.588 
   77500   -254650.71     96.23599   -254554.48    470.31839    6357.8272    16117.588 
   77600   -254649.96    93.828628   -254556.13    458.55329    6170.8209    16117.588 
   77700   -254655.26    97.900163   -254557.36    478.45143    6441.3671    16117.588 
   77800   -254654.51    94.602514   -254559.91    462.33538    6281.5312    16117.588 
   77900   -254655.85    94.833862   -254561.02      463.466    6239.2486    16117.588 
   78000   -254652.83      94.9962   -254557.84    464.25937    6248.4778    16117.588 
   78100   -254651.49    97.279468   -254554.21    475.41802    6397.8856    16117.588 
   78200   -254654.96    100.99259   -254553.96    493.56455    6647.1977    16117.588 
   78300   -254654.49    98.228709   -254556.26    480.05709    6466.9776    16117.588 
   78400   -254654.08    96.541228   -254557.54    471.81013    6349.9013    16117.588 
   78500   -254650.56    94.164914    -254556.4    460.19676    6266.4786    16117.588 
   78600   -254646.11    96.282752   -254549.82    470.54693    6336.9639    16117.588 
   78700   -254646.99    97.552582   -254549.44    476.75276    6417.4157    16117.588 
   78800   -254651.22    99.829929   -254551.39    487.88246    6607.3006    16117.588 
   78900    -254652.4    97.139966   -254555.26    474.73625    6396.2622    16117.588 
   79000   -254653.16    96.431187   -254556.73    471.27235    6335.1796    16117.588 
   79100   -254653.88    98.115316   -254555.77    479.50292    6459.1832    16117.588 
   79200   -254649.72    98.436802   -254551.28    481.07406    6482.8366    16117.588 
   79300   -254650.34    102.91637   -254547.42    502.96634    6777.5212    16117.588 
   79400   -254651.29    100.89815    -254550.4    493.10299    6637.1952    16117.588 
   79500   -254651.85    97.481725   -254554.37    476.40647    6417.4101    16117.588 
   79600   -254652.99    96.074007   -254556.91    469.52676     6393.018    16117.588 
   79700   -254656.05    98.093462   -254557.96    479.39611     6538.732    16117.588 
   79800   -254653.74    97.569804   -254556.17    476.83692    6423.1162    16117.588 
   79900   -254652.17    100.99499   -254551.18     493.5763    6669.7805    16117.588 
   80000   -254651.87      99.3863   -254552.48    485.71439    6545.5695    16117.588 
   80100   -254651.92    98.587095   -254553.34    481.80856    6554.6767    16117.588 
   80200   -254651.67    96.799039   -254554.87    473.07009    6372.6401    16117.588 
   80300   -254654.19    98.501447   -254555.69    481.38999    6523.7957    16117.588 
   80400   -254654.18    96.275088    -254557.9    470.50947    6326.0895    16117.588 
   80500   -254654.88    94.773305   -254560.11    463.17006    6315.1548    16117.588 
   80600   -254653.47    95.960651   -254557.51    468.97278     6311.013    16117.588 
   80700   -254654.14    99.974963   -254554.17    488.59127    6597.5417    16117.588 
   80800    -254652.7    98.809995   -254553.89    482.89791     6500.901    16117.588 
   80900   -254650.65     94.58895   -254556.06    462.26909    6264.3514    16117.588 
   81000   -254652.55    95.159365   -254557.39    465.05678    6261.7416    16117.588 
   81100    -254653.4    97.356039   -254556.05    475.79223    6468.9304    16117.588 
   81200   -254651.26    98.140527   -254553.11    479.62612    6523.9182    16117.588 
   81300   -254653.77    99.665477   -254554.11    487.07877    6648.8238    16117.588 
   81400   -254653.11    96.010486    -254557.1    469.21632    6318.8058    16117.588 
   81500   -254654.84    96.826414   -254558.01    473.20388    6406.3543    16117.588 
   81600   -254647.73    94.830005    -254552.9    463.44716    6240.6579    16117.588 
   81700   -254647.24    97.966602   -254549.27    478.77613     6449.146    16117.588 
   81800    -254648.1    97.706511   -254550.39    477.50503    6543.0076    16117.588 
   81900   -254650.52     96.09691   -254554.43    469.63869    6369.1465    16117.588 
   82000    -254651.4    96.072176   -254555.33    469.51781    6324.0279    16117.588 
   82100    -254649.6    95.990254   -254553.61    469.11745      6317.62    16117.588 
   82200   -254646.15    97.766007   -254548.38     477.7958    6436.0862    16117.588 
   82300    -254649.1    100.31401   -254548.79    490.24823    6605.4077    16117.588 
   82400   -254647.75    95.336492   -254552.41    465.92243    6308.4204    16117.588 
   82500   -254651.12    96.567536   -254554.55    471.93871    6414.5094    16117.588 
   82600   -254651.26     95.12007   -254556.14    464.86474    6309.2054    16117.588 
   82700   -254651.57    96.020909   -254555.55    469.26726    6319.0213    16117.588 
   82800   -254649.04    99.214129   -254549.83    484.87297    6529.4621    16117.588 
   82900   -254648.95    99.265689   -254549.69    485.12494    6637.3605    16117.588 
   83000   -254648.99    96.051526   -254552.94    469.41689    6389.4811    16117.588 
   83100   -254650.66    97.073854   -254553.58    474.41315    6389.2082    16117.588 
   83200   -254649.55    96.935542   -254552.61     473.7372     6405.335    16117.588 
   83300   -254648.23    97.623469   -254550.61    477.09919    6424.2412    16117.588 
   83400   -254647.75    101.34527   -254546.41    495.28814    6699.4961    16117.588 
   83500    -254644.1    100.40374   -254543.69    490.68678    6686.2845    16117.588 
   83600   -254646.32    98.850009   -254547.47    483.09346    6507.5936    16117.588 
   83700   -254649.15     97.37861   -254551.77    475.90254    6410.2999    16117.588 
   83800   -254649.23    95.560388   -254553.67    467.01664    6289.6222    16117.588 
   83900   -254652.32    98.981476   -254553.34    483.73596    6565.0222    16117.588 
   84000   -254651.93    97.987019   -254553.95    478.87591    6450.2679    16117.588 
   84100    -254654.8    97.277333   -254557.52    475.40758    6441.4396    16117.588 
   84200   -254653.15    94.630071   -254558.52    462.47005    6228.9665    16117.588 
   84300   -254653.88    98.718734   -254555.17     482.4519    6524.6884    16117.588 
   84400   -254651.78    100.19995   -254551.58    489.69079    6636.2856    16117.588 
   84500   -254651.54    99.197952   -254552.34    484.79391    6530.3946    16117.588 
   84600   -254651.48     97.34128   -254554.14     475.7201    6406.6007    16117.588 
   84700   -254650.19    95.521836   -254554.67    466.82823    6323.0916    16117.588 
   84800   -254651.61    99.381789   -254552.23    485.69234    6566.4751    16117.588 
   84900    -254649.7    100.83186   -254548.87    492.77906    6638.0757    16117.588 
   85000   -254648.24    99.725096   -254548.52    487.37013    6645.1608    16117.588 
   85100   -254650.24    96.918259   -254553.32    473.65274    6468.4282    16117.588 
   85200   -254651.32    95.300521   -254556.02    465.74663    6271.8241    16117.588 
   85300   -254653.37    98.794504   -254554.57     482.8222    6545.9584    16117.588 
   85400   -254648.77    97.561874    -254551.2    476.79817    6463.1419    16117.588 
   85500   -254648.31    98.270472   -254550.04    480.26119    6554.4921    16117.588 
   85600   -254653.83    97.603681   -254556.22    477.00249    6423.1015    16117.588 
   85700   -254649.82    92.241657   -254557.57    450.79754    6098.1064    16117.588 
   85800   -254651.69    97.328129   -254554.36    475.65582    6430.2123    16117.588 
   85900   -254651.37    99.288615   -254552.08    485.23699    6535.5401    16117.588 
   86000   -254649.68    97.748044   -254551.93    477.70801    6432.3213    16117.588 
   86100   -254647.82    92.943319   -254554.88    454.22666    6230.6483    16117.588 
   86200   -254652.08    95.228445   -254556.86    465.39439    6265.9292    16117.588 
   86300   -254651.18    97.867396   -254553.32     478.2913    6521.1518    16117.588 
   86400   -254650.11    100.55484   -254549.55    491.42521    6621.5085    16117.588 
   86500   -254649.36    99.564377    -254549.8    486.58468    6728.3582    16117.588 
   86600   -254652.79    99.891914   -254552.89    488.18539     6683.973    16117.588 
   86700   -254652.71    98.812018    -254553.9    482.90779    6760.9292    16117.588 
   86800   -254651.93    97.409642   -254554.53    476.05419    6445.2908    16117.588 
   86900   -254651.17    97.153524   -254554.01    474.80251    6394.8121    16117.588 
   87000    -254651.2    98.973729   -254552.22     483.6981    6618.5424    16117.588 
   87100   -254648.64    97.774712   -254550.87    477.83834    6507.1731    16117.588 
   87200   -254648.87    101.12856   -254547.74    494.22904    6857.7115    16117.588 
   87300   -254651.02    101.43287   -254549.59    495.71625    6703.8105    16117.588 
   87400   -254647.72    94.070568   -254553.65    459.73568    6190.2644    16117.588 
   87500   -254650.96    98.237453   -254552.72    480.09982    6465.1485    16117.588 
   87600   -254648.71     97.67542   -254551.03    477.35309    6476.4395    16117.588 
   87700   -254648.05    98.904465   -254549.14    483.35959    6510.8583    16117.588 
   87800   -254646.62    96.304157   -254550.32    470.65154    6338.7569    16117.588 
   87900   -254652.32    97.427162   -254554.89    476.13982    6445.6414    16117.588 
   88000   -254651.09    94.334571   -254556.75     461.0259    6263.7399    16117.588 
   88100    -254650.1    95.189757   -254554.91    465.20531    6265.8215    16117.588 
   88200   -254648.45     98.18781   -254550.26    479.85721    6492.9788    16117.588 
   88300    -254646.4    96.666514   -254549.73    472.42243    6477.9942    16117.588 
[...]
  408900   -254648.32     94.59627   -254553.73    462.30486    6313.9232    16117.588 
  409000   -254649.51    95.998535   -254553.51    469.15792    6350.5693    16117.588 
  409100    -254652.1    100.22501   -254551.88    489.81327    6600.8774    16117.588 
  409200   -254650.02    103.98646   -254546.04    508.19602    6920.7229    16117.588 
  409300   -254645.57    96.933572   -254548.63    473.72757    6436.8459    16117.588 
  409400    -254648.2    95.258874   -254552.94    465.54309     6271.133    16117.588 
  409500   -254650.75    96.842648   -254553.91    473.28322    6401.1442    16117.588 
  409600   -254651.74    95.316585   -254556.42    465.82514    6307.2261    16117.588 
  409700   -254652.84    94.321515   -254558.52    460.96209    6259.9034    16117.588 
  409800   -254652.58    92.070707   -254560.51    449.96209    6124.2181    16117.588 
  409900   -254652.47    94.836107   -254557.63    463.47698    6279.7344    16117.588 
  410000   -254653.81    99.424225   -254554.39    485.89973    6627.5927    16117.588 
  410100   -254652.62    97.585049   -254555.04    476.91143    6423.6499    16117.588 
  410200   -254652.02    95.433711   -254556.59    466.39755    6309.4425    16117.588 
  410300   -254653.79     96.69339    -254557.1    472.55377    6412.8128    16117.588 
  410400   -254654.07    97.523988   -254556.54    476.61302    6449.0279    16117.588 
  410500   -254653.17    98.977788   -254554.19    483.71793    6520.4743    16117.588 
  410600   -254651.25    98.982862   -254552.27    483.74273    6606.8862    16117.588 
  410700    -254649.2    96.866059   -254552.34    473.39763    6378.3818    16117.588 
  410800   -254651.08    96.049587   -254555.03    469.40742    6326.1756    16117.588 
  410900   -254650.63     92.85178   -254557.78     453.7793    6233.6873    16117.588 
  411000   -254651.04    95.465437   -254555.57     466.5526    6286.6203    16117.588 
  411100   -254650.79    98.991926    -254551.8    483.78703    6545.1667    16117.588 
  411200   -254651.53    100.88196   -254550.65    493.02386    6718.1198    16117.588 
  411300   -254649.76    93.223832   -254556.53    455.59757    6136.9756    16117.588 
  411400   -254652.07    95.505628   -254556.57    466.74901    6288.8657    16117.588 
  411500   -254653.79    99.892933    -254553.9    488.19037    6619.8145    16117.588 
  411600   -254650.22    97.593301   -254552.63    476.95176    6424.4912    16117.588 
  411700   -254651.37    96.574404   -254554.79    471.97227    6358.8544    16117.588 
  411800   -254653.43    93.720282   -254559.71    458.02379    6203.2562    16117.588 
  411900    -254656.9    98.897402      -254558    483.32508    6559.8251    16117.588 
  412000   -254654.37     99.37602      -254555    485.66415    6637.2446    16117.588 
  412100   -254650.15    97.407959   -254552.74    476.04597    6409.3601    16117.588 
  412200   -254650.64    98.805519   -254551.84    482.87603    6593.4987    16117.588 
  412300   -254650.19    97.127378   -254553.07    474.67473    6524.5154    16117.588 
  412400    -254652.2    95.987583   -254556.21     469.1044    6319.0923    16117.588 
  412500   -254651.41    92.797293   -254558.62    453.51301    6109.0402    16117.588 
  412600   -254650.51    95.143716   -254555.37     464.9803    6399.1651    16117.588 
  412700    -254648.5    96.641966   -254551.86    472.30246     6364.387    16117.588 
  412800   -254647.67    97.346604   -254550.33    475.74612    6506.2318    16117.588 
  412900   -254647.49    94.406225   -254553.08    461.37608    6212.5603    16117.588 
  413000   -254649.15    94.669945   -254554.48    462.66492    6255.8344    16117.588 
  413100   -254647.44    95.923368   -254551.52    468.79057    6363.9793    16117.588 
  413200   -254651.23     101.4989   -254549.73    496.03895    6731.9875    16117.588 
  413300    -254650.2    98.069264   -254552.13    479.27786    6456.5325    16117.588 
  413400   -254652.92    96.568511   -254556.35    471.94347    6357.0848    16117.588 
  413500   -254656.67    98.125147   -254558.54    479.55096    6459.4925    16117.588 
  413600   -254653.51    95.434948   -254558.07    466.40359    6308.6838    16117.588 
  413700   -254652.96    99.415289   -254553.55    485.85606    6547.0178    16117.588 
  413800   -254651.01    97.522102   -254553.48     476.6038    6506.4885    16117.588 
  413900    -254651.5    96.437849   -254555.06    471.30491    6406.0705    16117.588 
  414000   -254653.27    96.144205   -254557.13    469.86983    6375.9531    16117.588 
  414100    -254655.2    95.225635   -254559.97    465.38065    6269.7078    16117.588 
  414200    -254655.8    95.602992   -254560.19    467.22485    6366.8436    16117.588 
  414300   -254655.61    97.714698    -254557.9    477.54504    6434.2176    16117.588 
  414400   -254652.14    97.975533   -254554.16    478.81978    6453.1259    16117.588 
  414500   -254650.55     97.27311   -254553.28    475.38694    6511.3934    16117.588 
  414600    -254651.3    96.760856   -254554.54    472.88349    6371.1665    16117.588 
  414700   -254653.27    92.734139   -254560.54    453.20437    6103.8624    16117.588 
  414800   -254655.35    95.864752   -254559.49     468.5041    6311.2757    16117.588 
  414900   -254653.76    97.765364      -254556    477.79265    6521.4136    16117.588 
  415000   -254653.17    98.732297   -254554.44    482.51819    6585.6702    16117.588 
  415100   -254650.32    97.377049   -254552.94    475.89491    6411.8361    16117.588 
  415200    -254651.2     98.13463   -254553.06    479.59731    6461.2181    16117.588 
  415300   -254652.28    93.768666   -254558.51    458.26025    6172.5644    16117.588 
  415400   -254652.19    93.080742   -254559.11    454.89827    6128.1978    16117.588 
  415500   -254653.51    97.337366   -254556.17    475.70097    6410.4971    16117.588 
  415600   -254648.74    94.601918   -254554.13    462.33246    6254.3068    16117.588 
  415700   -254650.75    96.998688   -254553.75     474.0458    6387.6355    16117.588 
  415800   -254652.69    98.817806   -254553.87    482.93608    6584.3572    16117.588 
  415900   -254650.04    95.559108   -254554.49    467.01038    6382.6794    16117.588 
  416000   -254652.23    98.758856   -254553.47    482.64799    6555.2422    16117.588 
  416100   -254653.05    101.04042   -254552.01    493.79831    6655.1719    16117.588 
  416200   -254653.14    98.632749   -254554.51    482.03168    6495.5601    16117.588 
  416300   -254653.66    95.381705   -254558.28    466.14339    6399.4229    16117.588 
  416400   -254651.88    93.323485   -254558.55    456.08459    6144.3294    16117.588 
  416500    -254653.2    98.381495   -254554.82    480.80377     6602.513    16117.588 
  416600    -254653.3    99.885026   -254553.42    488.15173    6577.3323    16117.588 
  416700   -254653.47    98.674263   -254554.79    482.23457    6602.5227    16117.588 
  416800   -254652.38    95.072231    -254557.3    464.63095    6259.0328    16117.588 
  416900   -254653.29    96.026617   -254557.26    469.29516    6432.4871    16117.588 
  417000   -254651.16    98.197774   -254552.96     479.9059    6497.4176    16117.588 
  417100   -254650.08      100.161   -254549.92    489.50047     6624.089    16117.588 
  417200   -254649.53    96.659361   -254552.88    472.38747    6431.9538    16117.588 
  417300   -254649.01    95.743631   -254553.27    467.91217    6424.5951    16117.588 
  417400    -254649.2    96.491134   -254552.71    471.56532    6351.2533    16117.588 
  417500   -254650.58    96.613779   -254553.96     472.1647    6388.4157    16117.588 
  417600   -254655.33    97.318463   -254558.01    475.60859    6493.8231    16117.588 
  417700   -254656.78    95.085068    -254561.7    464.69368     6290.973    16117.588 
  417800   -254653.11    94.108322   -254559.01    459.92019    6225.2726    16117.588 
  417900   -254652.65    96.406658   -254556.24    471.15247    6456.2453    16117.588 
  418000   -254651.16    97.691309   -254553.47    477.43074    6433.8258    16117.588 
  418100    -254651.4    98.906593    -254552.5    483.36999    6542.4903    16117.588 
  418200   -254649.43    97.564863   -254551.86    476.81278    6462.4118    16117.588 
  418300   -254648.91     95.47521   -254553.44    466.60036    6289.0231    16117.588 
  418400   -254652.15    95.650583    -254556.5    467.45743    6301.8019    16117.588 
  418500   -254653.49    94.454089   -254559.04       461.61    6249.0997    16117.588 
  418600   -254650.87    93.432115   -254557.44    456.61547    6207.1357    16117.588 
  418700   -254650.18    98.067864   -254552.11    479.27101    6459.1944    16117.588 
  418800   -254650.46    97.921046   -254552.53    478.55349    6538.7469    16117.588 
  418900   -254651.78    98.178223   -254553.61    479.81035    6544.8092    16117.588 
  419000   -254652.73    96.122191   -254556.61    469.76224    6328.7737    16117.588 
  419100   -254654.61    94.418581   -254560.19    461.43647    6242.0291    16117.588 
  419200   -254653.89    94.805111   -254559.08     463.3255    6441.3404    16117.588 
  419300   -254653.79    97.299323   -254556.49    475.51505    6408.3052    16117.588 
  419400    -254654.5    98.578663   -254555.92    481.76736    6601.9077    16117.588 
  419500   -254652.18    95.871212   -254556.31    468.53567    6349.5567    16117.588 
  419600    -254652.7    96.427932   -254556.28    471.25644    6466.2553    16117.588 
  419700   -254652.44    98.612717   -254553.82    481.93378    6495.4302    16117.588 
  419800   -254647.09    97.299144   -254549.79    475.51417    6405.1109    16117.588 
  419900   -254649.31    99.458523   -254549.86    486.06735     6552.459    16117.588 
  420000   -254649.58    94.635701   -254554.95    462.49756    6279.3534    16117.588 
  420100   -254653.84    98.054516   -254555.79    479.20578    6457.9982    16117.588 
  420200   -254650.09    94.793193   -254555.29    463.26725    6236.4904    16117.588 
  420300   -254650.89    99.168202   -254551.72    484.64851    6565.8152    16117.588 
  420400   -254647.56    97.610626   -254549.94    477.03643    6473.3841    16117.588 
  420500   -254649.39    96.448149   -254552.94    471.35525    6352.2307    16117.588 
  420600   -254655.15    96.527676   -254558.62     471.7439    6355.4826    16117.588 
  420700   -254655.51    97.689107   -254557.82    477.41998     6435.186    16117.588 
  420800   -254652.21     97.58723   -254554.62    476.92209    6427.3769    16117.588 
  420900   -254653.08    100.03065   -254553.05    488.86344    6589.2777    16117.588 
  421000   -254652.36    97.301409   -254555.06    475.52524    6481.7272    16117.588 
  421100   -254654.77    94.317917   -254560.45    460.94451    6385.6289    16117.588 
  421200   -254653.94    94.266071   -254559.68    460.69113    6238.1086    16117.588 
  421300   -254651.45    94.186193   -254557.27    460.30076    6236.1747    16117.588 
  421400   -254655.96    100.40934   -254555.55    490.71412    6615.4049    16117.588 
  421500   -254651.36    95.350365   -254556.01    465.99023    6359.9702    16117.588 
  421600   -254653.06    98.462935    -254554.6    481.20178    6505.3512    16117.588 
  421700   -254651.44    99.219901   -254552.22    484.90117    6519.2987    16117.588 
  421800   -254647.96    99.047959   -254548.91    484.06087    6523.8872    16117.588 
  421900   -254650.12    99.502427   -254550.62    486.28192     6601.092    16117.588 
  422000   -254650.97    96.300463   -254554.67    470.63348    6342.3781    16117.588 
  422100   -254650.57    95.556355   -254555.01    466.99692    6292.8065    16117.588 
  422200   -254651.68    99.182379    -254552.5     484.7178    6671.4742    16117.588 
  422300   -254651.33    100.51453   -254550.82    491.22818    6621.0144    16117.588 
  422400   -254651.43    99.835676   -254551.59    487.91055    6790.2081    16117.588 
  422500   -254650.21    96.610771   -254553.59       472.15    6362.0573    16117.588 
  422600   -254651.64     95.86782   -254555.77     468.5191    6368.9136    16117.588 
  422700   -254653.05    96.321866   -254556.73    470.73808    6475.2412    16117.588 
  422800   -254649.55    95.572782   -254553.98    467.07721    6291.0877    16117.588 
  422900   -254647.95    98.512913   -254549.44    481.44603    6527.4842    16117.588 
  423000   -254649.77    98.420707   -254551.35     480.9954     6506.968    16117.588 
  423100   -254651.05    95.633479   -254555.42    467.37384    6377.0192    16117.588 
  423200   -254653.49    96.222605   -254557.27    470.25298    6395.8181    16117.588 
  423300   -254653.65    96.401903   -254557.25    471.12923    6351.2404    16117.588 
  423400   -254651.01    98.070231   -254552.94    479.28258    6461.2796    16117.588 
  423500    -254649.8    98.918526   -254550.88    483.42831      6517.55    16117.588 
  423600   -254652.53    99.595659   -254552.93    486.73755    6645.8208    16117.588 
  423700   -254652.63    97.162296   -254555.47    474.84538    6689.8696    16117.588 
  423800   -254653.74    95.694214   -254558.05    467.67066    6302.0257    16117.588 
  423900   -254655.89     96.47225   -254559.42    471.47303    6344.8186    16117.588 
  424000      -254653    96.727555   -254556.27    472.72074    6367.8879    16117.588 
  424100   -254650.73    99.254013   -254551.48    485.06788    6598.6968    16117.588 
  424200   -254652.38    98.137974   -254554.24    479.61365    6494.9538    16117.588 
  424300   -254654.65    96.921572   -254557.72    473.66893    6380.3464    16117.588 
  424400   -254652.72    94.051214   -254558.67     459.6411    6193.3486    16117.588 
  424500   -254651.12    94.994926   -254556.13    464.25314    6289.3855    16117.588 
  424600   -254650.77    98.198262   -254552.57    479.90828    6490.7916    16117.588 
  424700   -254651.16     97.54777   -254553.61    476.72924     6512.055    16117.588 
  424800   -254653.44    97.641936    -254555.8    477.18945    6427.1962    16117.588 
  424900   -254653.59     95.85482   -254557.73    468.45557      6310.98    16117.588 
  425000   -254653.44    94.231533    -254559.2    460.52234    6205.2659    16117.588 
  425100   -254654.57    99.607128   -254554.97     486.7936    6646.9755    16117.588 
  425200   -254648.82    96.470004   -254552.35    471.46205    6452.7851    16117.588 
  425300    -254649.4    96.968984   -254552.43    473.90064    6385.7973    16117.588 
  425400   -254649.92    96.086553   -254553.84    469.58808    6357.0848    16117.588 
  425500   -254651.07    94.529591   -254556.54    461.97899    6316.4815    16117.588 
  425600   -254652.84    94.766435   -254558.07    463.13648    6309.0459    16117.588 
  425700   -254650.57    97.363874    -254553.2    475.83052    6412.7431    16117.588 
  425800   -254647.88     97.59642   -254550.29      476.967    6457.4779    16117.588 
  425900   -254650.87    99.463521    -254551.4    486.09178    6550.1938    16117.588 
  426000    -254651.2    96.368967   -254554.83    470.96827    6421.4687    16117.588 
  426100   -254651.29    96.615674   -254554.67    472.17396    6389.6511    16117.588 
  426200   -254649.32    98.399358   -254550.92    480.89107    6544.6738    16117.588 
  426300   -254647.77    99.666998    -254548.1     487.0862    6671.6878    16117.588 
  426400   -254650.59    99.226455   -254551.37     484.9332    6532.6706    16117.588 
  426500   -254651.57    96.251107   -254555.32    470.39227     6364.708    16117.588 
  426600    -254652.3    96.393832    -254555.9    471.08979    6378.1193    16117.588 
  426700   -254651.79    96.392949    -254555.4    471.08547    6344.9798    16117.588 
  426800   -254651.98    98.789094   -254553.19    482.79576    6499.7297    16117.588 
  426900   -254648.79    98.988608    -254549.8    483.77081    6701.2437    16117.588 
  427000   -254648.28    97.934704   -254550.35    478.62024    6482.6689    16117.588 
  427100   -254648.11    93.770292   -254554.34    458.26819      6172.31    16117.588 
  427200   -254647.64    93.589724   -254554.05    457.38573    6188.9968    16117.588 
  427300   -254647.67    95.852403   -254551.82    468.44375    6562.3302    16117.588 
  427400   -254649.76    97.888928   -254551.87    478.39653    6505.7872    16117.588 
  427500      -254652    98.891091    -254553.1    483.29423    6511.6609    16117.588 
  427600   -254649.27    92.757229   -254556.51    453.31721    6143.8057    16117.588 
  427700   -254651.97    94.738114   -254557.23    462.99807    6236.1821    16117.588 
  427800   -254646.52    92.966731   -254553.56    454.34108    6144.0841    16117.588 
  427900   -254649.84     99.66502   -254550.17    487.07653    6562.7332    16117.588 
  428000   -254648.43    96.185374   -254552.25    470.07103    6432.1971    16117.588 
  428100   -254654.58    98.939267   -254555.64    483.52968    6513.5832    16117.588 
  428200   -254651.69    94.546978   -254557.15    462.06396    6309.8023    16117.588 
  428300   -254653.55    96.969469   -254556.58    473.90301    6459.3169    16117.588 
  428400   -254648.99    93.986821      -254555     459.3264    6184.9987    16117.588 
  428500    -254652.8    98.944841   -254553.85    483.55692    6545.0218    16117.588 
  428600   -254652.98    98.749178   -254554.23    482.60069    6602.3304    16117.588 
  428700   -254653.08    94.497118   -254558.59    461.82029    6246.4181    16117.588 
  428800   -254657.93    96.758241   -254561.17     472.8707     6370.402    16117.588 
  428900    -254652.4    93.221632   -254559.17    455.58682      6132.25    16117.588 
  429000   -254651.46    95.991133   -254555.47    469.12174    6319.4261    16117.588 
  429100      -254652    98.667239   -254553.34    482.20024    6494.3068    16117.588 
  429200   -254648.61    95.724946   -254552.89    467.82086     6295.136    16117.588 
  429300   -254649.87    96.662583   -254553.21    472.40321    6360.2613    16117.588 
  429400    -254652.4    95.445131   -254556.95    466.45336    6306.5964    16117.588 
  429500   -254651.83    93.599028   -254558.23     457.4312    6160.9916    16117.588 
  429600    -254650.1    96.025224   -254554.07    469.28835    6363.5945    16117.588 
  429700   -254647.56    95.812786   -254551.75    468.25014    6368.5381    16117.588 
  429800    -254649.7     97.70964   -254551.99    477.52032    6433.1322    16117.588 
  429900   -254653.61    99.398866   -254554.21     485.7758    6543.1874    16117.588 
  430000   -254656.99    99.160921   -254557.83    484.61293    6529.3262    16117.588 
Loop time of 70817.8 on 1 procs for 430000 steps with 1584 atoms

Performance: 0.262 ns/day, 91.496 hours/ns, 6.072 timesteps/s
98.8% CPU use with 1 MPI tasks x 1 OpenMP threads

MPI task timing breakdown:
Section |  min time  |  avg time  |  max time  |%varavg| %total
---------------------------------------------------------------
Pair    | 67379      | 67379      | 67379      |   0.0 | 95.14
Kspace  | 222.56     | 222.56     | 222.56     |   0.0 |  0.31
Neigh   | 1037.2     | 1037.2     | 1037.2     |   0.0 |  1.46
Comm    | 11.302     | 11.302     | 11.302     |   0.0 |  0.02
Output  | 2155       | 2155       | 2155       |   0.0 |  3.04
Modify  | 11.231     | 11.231     | 11.231     |   0.0 |  0.02
Other   |            | 1.846      |            |       |  0.00

Nlocal:        1584.00 ave        1584 max        1584 min
Histogram: 1 0 0 0 0 0 0 0 0 0
Nghost:        10112.0 ave       10112 max       10112 min
Histogram: 1 0 0 0 0 0 0 0 0 0
Neighs:        818734.0 ave      818734 max      818734 min
Histogram: 1 0 0 0 0 0 0 0 0 0
FullNghs:  1.12577e+06 ave 1.12577e+06 max 1.12577e+06 min
Histogram: 1 0 0 0 0 0 0 0 0 0

Total # of neighbors = 1125772
Ave neighs/atom = 710.71465
Neighbor list builds = 43000
Dangerous builds not checked
Total wall time: 19:40:23
