LAMMPS (29 Sep 2021 - Update 2)
OMP_NUM_THREADS environment is not set. Defaulting to 1 thread. (src/comm.cpp:98)
  using 1 OpenMP thread(s) per MPI task
Reading data file ...
  orthogonal box = (0.0000000 0.0000000 0.0000000) to (25.260000 25.260000 25.260000)
  1 by 1 by 1 MPI processor grid
WARNING: Atom style in data file differs from currently defined atom style (src/read_data.cpp:516)
  reading atoms ...
  1584 atoms
  read_data CPU = 0.002 seconds
NequIP Coeff: type 1 is element O
NequIP Coeff: type 2 is element H
NequIP Coeff: type 3 is element Li
NequIP Coeff: type 4 is element Cl
Scanning dump file ...
Reading snapshot from dump file ...
  orthogonal box = (0.0000000 0.0000000 0.0000000) to (25.260000 25.260000 25.260000)
  1584 atoms before read
  1584 atoms in snapshot
  0 atoms purged
  1584 atoms replaced
  0 atoms trimmed
  0 atoms added
  1584 atoms after read
PPPM initialization ...
  using 12-bit tables for long-range coulomb (src/kspace.cpp:340)
  G vector (1/distance) = 0.22568151
  grid = 9 9 9
  stencil order = 5
  estimated absolute RMS force accuracy = 8.1621662e-06
  estimated relative force accuracy = 5.6683107e-07
  using double precision FFTW3
  3d grid and FFT values/proc = 2744 729
Neighbor list info ...
  update every 10 steps, delay 0 steps, check no
  max neighbors/atom: 2000, page size: 100000
  master list distance cutoff = 12
  ghost atom cutoff = 12
  binsize = 6, bins = 5 5 5
  3 neighbor lists, perpetual/occasional/extra = 3 0 0
  (1) pair nequip, perpetual
      attributes: full, newton off
      pair build: full/bin/atomonly
      stencil: full/bin/3d
      bin: standard
  (2) pair coul/long, perpetual, half/full from (1)
      attributes: half, newton off
      pair build: halffull/newtoff
      stencil: none
      bin: none
  (3) pair gauss/cut, perpetual, copy from (2)
      attributes: half, newton off
      pair build: copy
      stencil: none
      bin: none
Setting up Verlet run ...
  Unit style    : metal
  Current step  : 0
  Time step     : 0.0005
Per MPI rank memory allocation (min/avg/max) = 16.42 | 16.42 | 16.42 Mbytes
Step PotEng KinEng TotEng Temp Press Volume 
       0   -254646.82     102.3094   -254544.51          500    6760.5154    16117.588 
     100   -254646.05    102.23837   -254543.81    499.65283    6729.0555    16117.588 
     200   -254647.53    104.73105    -254542.8    511.83491    6894.3263    16117.588 
     300   -254646.04    103.04268      -254543    503.58361    6778.1774    16117.588 
     400   -254649.35    106.41195   -254542.94    520.04971    7006.0106    16117.588 
     500   -254647.43    102.29856   -254545.13      499.947    6819.3776    16117.588 
     600   -254648.79    100.48668    -254548.3    491.09208    6613.9302    16117.588 
     700   -254647.34    98.688943   -254548.65    482.30631    6490.9306    16117.588 
     800      -254648    104.61052   -254543.39    511.24584    6885.5698    16117.588 
     900   -254643.98    102.55073   -254541.42    501.17941    6750.6102    16117.588 
    1000   -254645.06    103.30265   -254541.76    504.85411    6801.7017    16117.588 
    1100    -254645.4    100.44616   -254544.96    490.89406    6697.3368    16117.588 
    1200   -254647.43    100.23898   -254547.19    489.88155    6598.3757    16117.588 
    1300   -254651.82    99.719622    -254552.1    487.34338    6564.0294    16117.588 
    1400   -254649.08    97.273466   -254551.81    475.38868    6402.2112    16117.588 
    1500   -254647.97    101.46317   -254546.51    495.86432    6680.8054    16117.588 
    1600   -254644.11    99.809482    -254544.3    487.78254    6619.6627    16117.588 
    1700   -254645.83    104.08308   -254541.75    508.66818    6854.0395    16117.588 
    1800   -254644.65    100.76869   -254543.89    492.47033    6633.4394    16117.588 
    1900   -254647.86    101.30956   -254546.55    495.11365    6671.7852    16117.588 
    2000   -254647.47    101.29295   -254546.17    495.03243    6670.8824    16117.588 
    2100    -254644.6    103.64146   -254540.96    506.50994    6827.2933    16117.588 
    2200   -254642.96    105.70246   -254537.26    516.58233    6958.3783    16117.588 
    2300   -254642.27    100.43313   -254541.84    490.83037    6728.9861    16117.588 
    2400   -254645.41    101.01065    -254544.4    493.65281    6653.7213    16117.588 
    2500   -254644.07    99.885126   -254544.18    488.15222    6580.4423    16117.588 
    2600   -254643.94     103.4793   -254540.46    505.71745    6993.4748    16117.588 
    2700    -254644.9    106.40295   -254538.49    520.00574    7116.2252    16117.588 
    2800   -254646.02    101.20415   -254544.81    494.59849    6666.3085    16117.588 
    2900   -254644.15    98.956103   -254545.19    483.61196    6575.1794    16117.588 
    3000   -254645.11    102.68446   -254542.42    501.83297    6805.6313    16117.588 
    3100   -254641.23    100.20466   -254541.03    489.71381    6682.8367    16117.588 
    3200   -254643.15    104.48431   -254538.66    510.62904     7083.921    16117.588 
    3300   -254639.39    105.98081   -254533.41    517.94266    6982.2689    16117.588 
    3400   -254641.01    104.97572   -254536.04    513.03064    6946.2101    16117.588 
    3500   -254644.84     105.4031   -254539.44    515.11932     7070.442    16117.588 
    3600      -254647    103.02978   -254543.97    503.52055    6786.1992    16117.588 
    3700   -254646.92    101.12267    -254545.8    494.20024    6661.7915    16117.588 
    3800   -254646.23    102.96202   -254543.27    503.18942    6873.2212    16117.588 
    3900   -254643.58    103.86197   -254539.72    507.58759    6843.0965    16117.588 
    4000   -254644.88    104.03113   -254540.85     508.4143    6852.9309    16117.588 
    4100   -254645.59    101.64335   -254543.94    496.74492    6728.4271    16117.588 
    4200   -254646.69      101.897   -254544.79    497.98453    6713.9854    16117.588 
    4300   -254643.85    100.43138   -254543.42    490.82184    6612.7507    16117.588 
    4400   -254644.46    102.92498   -254541.53    503.00838    6885.3466    16117.588 
    4500   -254644.45    104.91392   -254539.53     512.7286    6964.8663    16117.588 
    4600   -254642.27    103.41927   -254538.85    505.42405    6814.2194    16117.588 
    4700   -254642.07    101.41292   -254540.65    495.61875    6707.0452    16117.588 
    4800   -254645.88    102.56405   -254543.31    501.24449    6789.4188    16117.588 
    4900   -254649.99    103.22146   -254546.77    504.45733    6918.3473    16117.588 
    5000   -254649.21    99.081675   -254550.13    484.22564    6526.5725    16117.588 
    5100   -254650.04    100.95038   -254549.09    493.35824    6690.0737    16117.588 
    5200   -254648.27     102.4486   -254545.82    500.68027    6749.7533    16117.588 
    5300   -254645.88    101.75649   -254544.12    497.29785    6738.0075    16117.588 
    5400   -254643.37    103.35378   -254540.02    505.10399    6809.0391    16117.588 
    5500   -254642.53    103.63868   -254538.89    506.49636    6930.3649    16117.588 
    5600   -254644.53    103.39497   -254541.14    505.30532    6810.9977    16117.588 
    5700   -254645.83    99.173019   -254546.65    484.67205    6551.9604    16117.588 
    5800   -254646.06    98.936192   -254547.13    483.51465    6514.1723    16117.588 
    5900   -254649.53    102.74661   -254546.78     502.1367    6794.8357    16117.588 
    6000   -254647.63    104.64779   -254542.98      511.428    6892.1032    16117.588 
    6100   -254644.14    104.69612   -254539.44    511.66421     6946.243    16117.588 
    6200   -254642.69    102.31646   -254540.38    500.03446    6737.5288    16117.588 
    6300    -254645.2    102.74003   -254542.46    502.10452    6765.0488    16117.588 
    6400   -254644.71    100.73504   -254543.98    492.30587    6682.8002    16117.588 
    6500   -254648.03    99.225158    -254548.8    484.92686    6532.8797    16117.588 
    6600   -254650.24     98.75493   -254551.49     482.6288      6536.88    16117.588 
    6700    -254649.8    101.72457   -254548.08    497.14183    6696.8182    16117.588 
    6800   -254647.33    102.69283   -254544.63    501.87386    6813.9435    16117.588 
    6900   -254647.99    104.71989   -254543.27    511.78035      6953.28    16117.588 
    7000   -254646.72    104.62572   -254542.09    511.32013    6887.7877    16117.588 
    7100   -254644.94    103.34097    -254541.6    505.04141    6837.8131    16117.588 
    7200   -254645.03    105.78922   -254539.24    517.00634    6968.7758    16117.588 
    7300   -254645.35    107.38196   -254537.97    524.79028    7119.7468    16117.588 
    7400   -254646.68    104.33498   -254542.34    509.89924    6871.4925    16117.588 
    7500   -254647.48    101.89576   -254545.58    497.97847     6746.947    16117.588 
    7600   -254647.09    101.37522   -254545.71    495.43452    6676.2673    16117.588 
    7700   -254646.62    101.27714   -254545.34    494.95516    6765.5933    16117.588 
    7800   -254645.18     103.0934   -254542.09    503.83149    6866.6476    16117.588 
    7900   -254643.25    103.09364   -254540.16    503.83267    6790.7638    16117.588 
    8000   -254645.15    103.25437    -254541.9    504.61816    6894.1705    16117.588 
    8100   -254647.67    100.83307   -254546.84    492.78495    6641.0583    16117.588 
    8200   -254645.87    98.989513   -254546.88    483.77523    6518.7013    16117.588 
    8300   -254644.28    100.28358   -254543.99     490.0995    6604.6236    16117.588 
    8400   -254644.86    103.14849   -254541.71    504.10075    6787.4059    16117.588 
    8500   -254644.79    103.47512   -254541.32    505.69699    6868.1046    16117.588 
    8600   -254647.61    103.61213      -254544    506.36657    6820.5298    16117.588 
    8700   -254647.93    101.41469   -254546.51    495.62742    6746.9237    16117.588 
    8800   -254648.13    97.754565   -254550.37    477.73988    6499.6496    16117.588 
    8900   -254650.08    99.617442   -254550.46    486.84401    6560.7495    16117.588 
    9000   -254645.22    100.43306   -254544.78    490.83006    6716.5551    16117.588 
    9100    -254646.2    103.74621   -254542.46    507.02186    6872.9014    16117.588 
    9200   -254648.03    104.24678   -254543.78     509.4682    6905.0834    16117.588 
    9300   -254647.77    100.58089   -254547.19    491.55254    6766.5153    16117.588 
    9400   -254647.61    101.29411   -254546.31    495.03813    6763.8008    16117.588 
    9500   -254645.32    102.59399   -254542.72     501.3908     6829.654    16117.588 
    9600   -254645.55      106.393   -254539.15    519.95707    7062.0323    16117.588 
    9700   -254643.68    102.38202    -254541.3    500.35489    6742.3731    16117.588 
    9800   -254647.76    102.19355   -254545.56    499.43379    6727.3754    16117.588 
    9900   -254646.08    98.310127   -254547.77    480.45498     6513.054    16117.588 
   10000   -254648.87    103.58913   -254545.28    506.25419     6865.726    16117.588 
   10100   -254645.64    102.86676   -254542.77    502.72388    6859.2816    16117.588 
   10200   -254644.13    102.08743   -254542.04    498.91518    6726.3082    16117.588 
   10300   -254644.46    102.38616   -254542.08    500.37513    6746.2323    16117.588 
   10400    -254647.6    101.86652   -254545.74    497.83555    6736.2083    16117.588 
   10500   -254651.78    103.74633   -254548.04    507.02246    6834.4796    16117.588 
   10600   -254647.22    100.35481   -254546.86    490.44761    6697.8791    16117.588 
   10700   -254646.56    104.67511   -254541.88    511.56152    7026.8877    16117.588 
   10800   -254645.32    103.30077   -254542.02    504.84494    6960.2797    16117.588 
   10900   -254644.77    101.33015   -254543.43    495.21426    6673.8513    16117.588 
   11000   -254641.12    98.603656   -254542.52     481.8895     6493.801    16117.588 
   11100   -254643.08    104.32906   -254538.75    509.87034    6872.4384    16117.588 
   11200   -254642.71    105.25297   -254537.45    514.38559    7027.6075    16117.588 
   11300   -254646.17    105.06272   -254541.11    513.45585    7031.5797    16117.588 
   11400   -254646.14    101.69645   -254544.44    497.00442     6762.868    16117.588 
   11500   -254645.73    100.56911   -254545.16    491.49494    6664.3595    16117.588 
   11600   -254646.58    103.33457   -254543.25    505.01013    6840.4533    16117.588 
   11700   -254645.21    103.21894   -254541.99    504.44503     6853.215    16117.588 
   11800    -254649.3    101.60713   -254547.69    496.56788    6693.2981    16117.588 
   11900   -254650.63    100.50029   -254550.13    491.15861     6662.172    16117.588 
   12000   -254649.61    103.30975    -254546.3    504.88883     6878.971    16117.588 
   12100   -254647.51    103.75336   -254543.76    507.05682    6836.9571    16117.588 
   12200   -254648.86    105.26673   -254543.59    514.45283     6966.966    16117.588 
   12300   -254646.35    100.07978   -254546.27    489.10351    6620.5126    16117.588 
   12400   -254649.66    99.781603   -254549.88    487.64629    6572.1466    16117.588 
   12500   -254649.82    99.731242   -254550.09    487.40017    6614.6103    16117.588 
   12600   -254649.08    104.22452   -254544.86    509.35942    6989.6296    16117.588 
   12700   -254649.22    105.93217   -254543.29    517.70495    7007.6482    16117.588 
   12800   -254647.24    102.77936   -254544.46    502.29675    6837.4548    16117.588 
   12900    -254649.7    100.72251   -254548.98    492.24462     6634.032    16117.588 
   13000   -254650.66    100.04926   -254550.62    488.95438    6634.9899    16117.588 
   13100   -254646.21    98.333047   -254547.88      480.567    6478.0053    16117.588 
   13200    -254648.9      102.798    -254546.1    502.38783     6773.963    16117.588 
   13300   -254647.38    103.66163   -254543.72    506.60851    6874.7843    16117.588 
   13400    -254645.6    104.73506   -254540.86    511.85451    6902.8864    16117.588 
   13500   -254643.19    103.92518   -254539.26    507.89651    6847.4645    16117.588 
   13600    -254640.9    97.351412   -254543.55    475.76962    6407.3688    16117.588 
   13700   -254651.13    103.50618   -254547.62     505.8488    6821.4087    16117.588 
   13800   -254651.19    104.25021   -254546.94    509.48499    7124.7099    16117.588 
   13900   -254649.62    103.67854   -254545.94    506.69114    6970.8824    16117.588 
   14000   -254645.48    101.67243   -254543.81    496.88702    6696.7994    16117.588 
   14100   -254645.09     106.0611   -254539.03    518.33506    6987.7369    16117.588 
   14200   -254644.53    104.56885   -254539.96    511.04221    6935.4847    16117.588 
   14300   -254647.52    103.31439   -254544.21     504.9115    6831.8243    16117.588 
   14400   -254650.54     103.4648   -254547.07    505.64659    6815.1838    16117.588 
   14500   -254647.82    100.69248   -254547.13    492.09786    6632.9813    16117.588 
   14600   -254650.55    105.39363   -254545.16    515.07305    6966.7433    16117.588 
   14700   -254647.01    103.03552   -254543.97    503.54863    6877.0397    16117.588 
   14800   -254643.32    101.65637   -254541.66    496.80852    6748.1538    16117.588 
   14900   -254644.31    106.90432    -254537.4      522.456    7077.4141    16117.588 
   15000   -254646.45    104.64223   -254541.81    511.40084    6893.3866    16117.588 
   15100   -254647.21    102.10102   -254545.11     498.9816    6724.0108    16117.588 
   15200    -254648.4    103.01671   -254545.39    503.45671    6834.0847    16117.588 
   15300   -254646.37    102.75851   -254543.61    502.19483    6798.5704    16117.588 
   15400   -254640.23    101.36869   -254538.86    495.40258    6675.0584    16117.588 
   15500   -254641.58    104.82382   -254536.75    512.28828    6926.6125    16117.588 
   15600   -254642.04    102.25329   -254539.78    499.72578    6732.4933    16117.588 
   15700   -254642.37    100.53275   -254541.83    491.31725    6617.1727    16117.588 
   15800   -254646.34    103.49708   -254542.84    505.80435    6814.3009    16117.588 
   15900   -254648.93    104.07336   -254544.86    508.62068    6913.4867    16117.588 
   16000   -254648.16    100.64942   -254547.51    491.88744    6750.4525    16117.588 
   16100   -254651.14     97.95175   -254553.19    478.70355    6645.7019    16117.588 
   16200   -254649.22    96.595604   -254552.62    472.07588    6612.6711    16117.588 
   16300   -254649.32     101.3743   -254547.94    495.42999    6715.8799    16117.588 
   16400   -254646.49    101.84751   -254544.64    497.74266    6706.4011    16117.588 
   16500   -254645.23    102.89652   -254542.33     502.8693     6926.832    16117.588 
   16600   -254645.42    103.55855   -254541.86    506.10477    6821.0765    16117.588 
   16700   -254647.98    100.92866   -254547.05     493.2521    6703.0309    16117.588 
   16800   -254647.05    99.910208   -254547.14     488.2748    6577.7952    16117.588 
   16900   -254647.79     103.2482   -254544.55    504.58803    6854.3214    16117.588 
   17000   -254644.99     102.5396   -254542.45    501.12499    6778.4926    16117.588 
   17100   -254639.22    98.589588   -254540.63    481.82075    6545.6351    16117.588 
   17200   -254644.25    104.20474   -254540.04    509.26278     6942.817    16117.588 
   17300   -254644.43    98.810764   -254545.62    482.90167    6505.0012    16117.588 
   17400   -254647.57    99.972175    -254547.6    488.57764    6583.9254    16117.588 
   17500   -254648.65    103.41374   -254545.23    505.39706    6813.2879    16117.588 
   17600   -254646.31    103.93949   -254542.37    507.96645    6846.8848    16117.588 
   17700   -254642.86    100.98178   -254541.87    493.51171    6676.9374    16117.588 
   17800   -254644.35     102.1404   -254542.21    499.17403    6854.6234    16117.588 
   17900   -254644.92    101.15696   -254543.77    494.36783    6663.0252    16117.588 
   18000   -254647.98    101.63201   -254546.35    496.68947    6764.5266    16117.588 
   18100   -254650.21    100.52639   -254549.68    491.28615    6722.5561    16117.588 
   18200   -254646.87    101.85084   -254545.02    497.75892    6706.1779    16117.588 
   18300   -254645.18    104.52231   -254540.66    510.81479    6979.3065    16117.588 
   18400   -254640.46     100.5597    -254539.9    491.44894     6805.787    16117.588 
   18500   -254644.43    103.38192   -254541.04    505.24153     6771.849    16117.588 
   18600   -254645.22    101.68462   -254543.53    496.94661    6777.0688    16117.588 
   18700   -254646.42    100.60071   -254545.82    491.64936    6616.2979    16117.588 
   18800   -254646.49    98.302471   -254548.19    480.41757    6495.7815    16117.588 
   18900    -254647.2    98.854862   -254548.34    483.11718    6576.8796    16117.588 
   19000   -254644.34    100.25308   -254544.09    489.95046    6601.9371    16117.588 
   19100   -254644.59    102.90632   -254541.68    502.91722    6993.3942    16117.588 
   19200   -254642.35    99.694403   -254542.66    487.22013    6563.7983    16117.588 
   19300   -254645.78    99.175123    -254546.6    484.68234    6529.7827    16117.588 
   19400   -254648.81      99.5436   -254549.27    486.48314    6586.0536    16117.588 
   19500   -254649.03    103.01868   -254546.01    503.46633    6842.9955    16117.588 
   19600   -254646.29    103.93837   -254542.35    507.96096    6953.1391    16117.588 
   19700   -254643.43    101.55683   -254541.88    496.32205    6756.8054    16117.588 
   19800   -254647.67    103.68755   -254543.98     506.7352    7043.7836    16117.588 
   19900    -254650.2    101.64624   -254548.56    496.75905    6690.3307    16117.588 
   20000   -254649.39    100.25788   -254549.13    489.97394    6603.9653    16117.588 
   20100   -254647.52    103.71839    -254543.8     506.8859    6830.2867    16117.588 
   20200   -254646.06     104.8919   -254541.17    512.62101    6908.0424    16117.588 
   20300   -254645.03    101.80552   -254543.22    497.53746    6768.1748    16117.588 
   20400   -254648.08    102.50464   -254545.58    500.95413    6829.8115    16117.588 
   20500   -254647.86    102.57984   -254545.28    501.32165    6754.6251    16117.588 
   20600   -254642.36    102.46148    -254539.9     500.7432    6744.0303    16117.588 
   20700   -254638.88    101.77361   -254537.11    497.38149    6789.6975    16117.588 
   20800   -254644.56    104.94718   -254539.61    512.89119    6936.1487    16117.588 
   20900   -254645.91    102.58775   -254543.33    501.36031    6755.0424    16117.588 
   21000   -254644.97    100.21215   -254544.75    489.75042    6622.6922    16117.588 
   21100   -254645.88    102.64037   -254543.24    501.61749     6779.871    16117.588 
   21200   -254643.53    104.80676   -254538.72    512.20492    6993.2809    16117.588 
   21300   -254640.09    104.45195   -254535.64    510.47091    6877.0869    16117.588 
   21400    -254643.5    105.26258   -254538.23    514.43259    7086.6652    16117.588 
   21500   -254645.09    103.33085   -254541.75    504.99193    6804.5811    16117.588 
   21600   -254647.23    104.74692   -254542.48    511.91247    6921.1144    16117.588 
   21700   -254642.77    99.239521   -254543.53    484.99706    6533.6781    16117.588 
   21800    -254647.8     100.1075   -254547.69    489.23897    6670.3488    16117.588 
   21900   -254650.44    99.171827   -254551.27    484.66623    6607.9886    16117.588 
   22000   -254648.31    99.235044   -254549.08    484.97518    6534.9932    16117.588 
   22100   -254648.61    102.21171    -254546.4    499.52257    6787.0541    16117.588 
   22200   -254647.92    102.66587   -254545.26    501.74208    6789.8273    16117.588 
   22300   -254647.24    102.35074   -254544.89    500.20199    6863.5788    16117.588 
   22400   -254646.94     100.9912   -254545.94    493.55774    6650.0957    16117.588 
   22500   -254648.81    99.110731    -254549.7    484.36765    6667.6951    16117.588 
   22600   -254650.37    101.17468    -254549.2    494.45443    6823.0015    16117.588 
   22700   -254650.77    103.80961   -254546.97    507.33173    6876.2371    16117.588 
   22800   -254648.71    105.39922   -254543.31    515.10036    6943.2315    16117.588 
   22900   -254644.81    104.45191   -254540.36     510.4707    7010.8047    16117.588 
   23000   -254639.27    102.23733   -254537.04    499.64775    7010.8056    16117.588 
   23100   -254645.37    109.11064   -254536.26    533.23855    7187.7701    16117.588 
   23200   -254646.12    104.03436   -254542.09    508.43008    6907.1934    16117.588 
   23300   -254646.38    101.66533   -254544.72    496.85233    6696.7925    16117.588 
   23400   -254647.43    103.14164   -254544.29    504.06722    6834.4099    16117.588 
   23500   -254644.05     101.8929   -254542.16     497.9645    6705.3609    16117.588 
   23600   -254645.15    105.39669   -254539.76    515.08797    6942.3444    16117.588 
   23700   -254641.85    102.40587   -254539.45    500.47146    6769.2861    16117.588 
   23800   -254642.64    100.79827   -254541.84    492.61487    6637.6943    16117.588 
   23900   -254642.94    99.419263   -254543.52    485.87548    6539.3363    16117.588 
   24000   -254644.72    102.94337   -254541.77    503.09826    6778.9892    16117.588 
   24100   -254642.41    104.34662   -254538.06    509.95615    6933.2574    16117.588 
   24200   -254641.57    105.58012   -254535.99    515.98443    7003.3906    16117.588 
   24300   -254643.79    101.11814   -254542.67    494.17815    6658.6467    16117.588 
   24400   -254647.17    103.81529   -254543.36    507.35948    6863.3646    16117.588 
   24500   -254644.89    100.49909   -254544.39    491.15274    6619.2897    16117.588 
   24600    -254646.9    103.23489   -254543.67    504.52296    6822.6173    16117.588 
   24700    -254647.5    105.14997   -254542.35    513.88222    6931.1916    16117.588 
   24800   -254649.28    103.01097   -254546.27    503.42865    6847.4963    16117.588 
   24900   -254651.75     102.3954   -254549.36    500.42027    6748.2695    16117.588 
   25000   -254649.39    100.92181   -254548.47    493.21864    6698.3342    16117.588 
   25100   -254646.16    101.70153   -254544.46    497.02924    6700.1314    16117.588 
   25200   -254645.39    101.78469   -254543.61    497.43566    6706.7651    16117.588 
   25300    -254645.6     103.4229   -254542.18    505.44182    6811.9735    16117.588 
   25400   -254643.61     101.0875   -254542.52    494.02839    6720.8653    16117.588 
   25500   -254645.97      101.369    -254544.6    495.40409    6679.5272    16117.588 
   25600    -254648.9    99.649652   -254549.25    487.00143    6563.5003    16117.588 
   25700   -254647.57     100.9008   -254546.67    493.11598    6645.3008    16117.588 
   25800   -254644.33    101.86591   -254542.47    497.83257     6709.863    16117.588 
   25900    -254643.2    101.62499   -254541.57    496.65519    6688.0915    16117.588 
   26000    -254643.8    102.32463   -254541.48    500.07443     6767.676    16117.588 
   26100   -254643.09      102.756   -254540.34    502.18257    6765.8599    16117.588 
   26200    -254640.8      104.543   -254536.25     510.9159    6886.0057    16117.588 
   26300   -254640.65     103.9779   -254536.67    508.15418    6848.0557    16117.588 
   26400   -254642.76    101.82313   -254540.94    497.62353    6704.4474    16117.588 
   26500   -254644.24    99.074761   -254545.17    484.19186    6507.4664    16117.588 
   26600   -254644.02    99.701249   -254544.32    487.25359    6565.3673    16117.588 
   26700   -254642.19    101.33391   -254540.85    495.23261    6674.2611    16117.588 
   26800   -254643.56    105.08853   -254538.47    513.58194    7054.5239    16117.588 
   26900   -254643.05    102.05899   -254540.99    498.77618    6809.0015    16117.588 
   27000   -254645.13    102.93025    -254542.2    503.03416    6778.8647    16117.588 
   27100   -254644.92    101.24283   -254543.68    494.78749    6662.4576    16117.588 
   27200   -254648.59    104.55694   -254544.04    510.98403    6889.1364    16117.588 
   27300   -254645.31    98.583605   -254546.73    481.79151    6554.8869    16117.588 
   27400   -254649.11    99.216189   -254549.89    484.88303    6531.0272    16117.588 
   27500   -254646.36    98.396815   -254547.96    480.87864    6483.4007    16117.588 
   27600   -254644.17    102.07639    -254542.1    498.86121    6725.3847    16117.588 
   27700   -254644.97    103.72139   -254541.25    506.90059    6832.1601    16117.588 
   27800   -254645.72    103.40019   -254542.32    505.33083    6812.7951    16117.588 
   27900      -254641    97.380784   -254543.62    475.91316    6409.1666    16117.588 
   28000   -254646.27    104.63701   -254541.64    511.37533    6959.8706    16117.588 
   28100   -254642.32     104.0298   -254538.29    508.40778    6850.8448    16117.588 
   28200   -254642.66    104.43464   -254538.22     510.3863     6879.291    16117.588 
   28300    -254642.5    99.057458   -254543.44     484.1073    6551.2876    16117.588 
   28400   -254646.01    100.59767   -254545.41    491.63454    6724.1366    16117.588 
   28500   -254646.59    102.40209   -254544.18    500.45298     6770.805    16117.588 
   28600   -254645.81    104.43696   -254541.37    510.39763    6917.7243    16117.588 
   28700   -254645.02       105.19   -254539.83    514.07789    6930.3582    16117.588 
   28800   -254644.92    103.56157   -254541.36     506.1195    6837.1035    16117.588 
   28900   -254646.25     104.5908   -254541.66    511.14949    6924.9228    16117.588 
   29000   -254645.03    101.80888   -254543.22    497.55384    6704.1857    16117.588 
   29100   -254642.29    97.884673   -254544.41    478.37573    6780.4949    16117.588 
   29200    -254643.7    100.77861   -254542.92     492.5188    6668.2436    16117.588 
   29300   -254644.43    104.59793   -254539.83    511.18433    6887.1598    16117.588 
   29400   -254642.57     102.5727      -254540    501.28675    6864.3316    16117.588 
   29500   -254646.74    101.60204   -254545.14    496.54304    6693.6004    16117.588 
   29600   -254647.92    101.53902   -254546.38      496.235    6689.4231    16117.588 
   29700    -254645.2    100.97322   -254544.22    493.46987    6649.1465    16117.588 
   29800   -254645.17    106.37576    -254538.8    519.87281    7063.1437    16117.588 
   29900   -254642.23    102.39952   -254539.83    500.44042    6802.5407    16117.588 
   30000   -254645.83      102.809   -254543.02    502.44157    6771.1366    16117.588 
   30100   -254646.15    100.43398   -254545.72    490.83452    6614.3942    16117.588 
   30200   -254644.77    99.910183   -254544.86    488.27467    6670.1932    16117.588 
   30300   -254644.22    101.94324   -254542.28    498.21052    6705.0169    16117.588 
   30400   -254643.02    105.65273   -254537.37     516.3393    7035.9234    16117.588 
   30500   -254642.85    106.82326   -254536.03    522.05983    7036.5744    16117.588 
   30600   -254645.37    104.42203   -254540.95     510.3247    6872.5795    16117.588 
   30700   -254647.73    105.18366   -254542.55    514.04686    6929.5879    16117.588 
   30800   -254648.53    103.55907   -254544.97     506.1073     6821.371    16117.588 
   30900   -254646.11    100.28011   -254545.83    490.08254    6603.5882    16117.588 
   31000    -254642.6    101.78432   -254540.82    497.43386     6781.885    16117.588 
   31100   -254643.75    105.27091   -254538.48    514.47328    6935.1848    16117.588 
   31200   -254645.59    104.41049   -254541.18    510.26829    6984.3654    16117.588 
   31300    -254642.6    100.00173    -254542.6    488.72208    6746.6133    16117.588 
   31400   -254646.02    102.24369   -254543.78    499.67884    6789.5422    16117.588 
   31500   -254645.74    98.216243   -254547.52    479.99616    6464.3235    16117.588 
   31600   -254648.55     98.52591   -254550.03    481.50955    6485.5056    16117.588 
   31700   -254649.48    103.72686   -254545.75    506.92732    6996.5995    16117.588 
   31800   -254644.48    101.36153   -254543.12    495.36758    6675.6745    16117.588 
   31900   -254644.17    103.34947   -254540.82    505.08292    6807.1099    16117.588 
   32000   -254645.41    106.19996   -254539.21    519.01366     6992.333    16117.588 
   32100    -254643.5    102.33101   -254541.17    500.10557    6907.9746    16117.588 
   32200   -254644.73    98.040013   -254546.69     479.1349    6454.4023    16117.588 
   32300   -254646.44    100.28299   -254546.15    490.09665    6660.4852    16117.588 
   32400   -254646.59    101.88275   -254544.71    497.91488    6706.5673    16117.588 
   32500    -254646.7    102.93443   -254543.77    503.05459    6808.9113    16117.588 
   32600   -254648.93    102.52253    -254546.4    501.04156     6748.449    16117.588 
   32700   -254651.09    100.25397   -254550.83    489.95481    6597.2604    16117.588 
   32800   -254648.31    99.518616   -254548.79    486.36103    6548.6744    16117.588 
   32900   -254647.63    103.21553   -254544.41    504.42838    6828.4879    16117.588 
   33000   -254645.86    101.58684   -254544.27    496.46871    6808.4526    16117.588 
   33100   -254646.42    100.99594   -254545.42    493.58092    6647.5397    16117.588 
   33200   -254647.84      98.3812   -254549.46    480.80233    6471.5913    16117.588 
   33300   -254646.22     97.13199   -254549.08    474.69727    6390.7345    16117.588 
   33400   -254644.09    100.72781   -254543.36    492.27055     6681.642    16117.588 
   33500    -254646.3     104.0309   -254542.27    508.41319    6848.4429    16117.588 
   33600   -254643.88    103.20682   -254540.68     504.3858    6870.8201    16117.588 
   33700   -254645.35    105.96147   -254539.39    517.84815    7087.5047    16117.588 
   33800   -254643.87    105.25523   -254538.62    514.39667    7087.6079    16117.588 
   33900   -254643.43    103.08699   -254540.35    503.80018    6876.2448    16117.588 
   34000   -254648.47     103.1942   -254545.27    504.32411    6792.6787    16117.588 
   34100   -254648.26    102.38355   -254545.87    500.36234    6782.7438    16117.588 
   34200   -254644.53    101.31661   -254543.21    495.14807    6706.7241    16117.588 
   34300   -254647.17    106.51354   -254540.66    520.54617    7012.5848    16117.588 
   34400   -254645.75    103.84475    -254541.9    507.50342    6835.6025    16117.588 
   34500    -254649.6    101.53036   -254548.07    496.19269    6684.0557    16117.588 
   34600   -254646.24    98.947751   -254547.29    483.57114    6563.5609    16117.588 
   34700   -254643.66    101.12062   -254542.54    494.19026    6691.6113    16117.588 
   34800   -254643.84    104.59789   -254539.24    511.18411    6917.5976    16117.588 
   34900   -254643.81    105.50062   -254538.31    515.59588    6947.2932    16117.588 
   35000   -254647.48    104.73286   -254542.75    511.84378    6897.0131    16117.588 
   35100   -254645.02     99.93038   -254545.09    488.37338    6603.6314    16117.588 
   35200   -254647.55    103.27635   -254544.27    504.72561    6798.0766    16117.588 
   35300   -254644.48    102.23795   -254542.24     499.6508     6731.145    16117.588 
   35400   -254641.31    102.48963   -254538.82    500.88077     6774.357    16117.588 
   35500    -254640.7    104.69387   -254536.01    511.65319    6885.1826    16117.588 
   35600   -254642.76     103.6689   -254539.09    506.64402     6811.098    16117.588 
   35700   -254644.38    100.18989   -254544.19    489.64166    6613.6559    16117.588 
   35800    -254645.5     101.8339   -254543.67    497.67616    6732.8071    16117.588 
   35900   -254644.84    102.00072   -254542.84    498.49143    6769.1817    16117.588 
   36000   -254642.99    101.91128   -254541.08    498.05433     6811.718    16117.588 
   36100   -254642.76    102.53177   -254540.23    501.08671    6751.4432    16117.588 
   36200   -254645.75    102.54164   -254543.21    501.13497    6786.2813    16117.588 
   36300   -254645.34    98.358892   -254546.99     480.6933    6475.9135    16117.588 
   36400   -254647.66    101.61434   -254546.04    496.60311    6692.0439    16117.588 
   36500   -254642.09    99.894643    -254542.2    488.19873    6577.8276    16117.588 
   36600   -254644.46    103.12644   -254541.33    503.99296    6793.1454    16117.588 
   36700   -254645.48    102.69989   -254542.78    501.90837    6805.8569    16117.588 
   36800   -254648.73    104.30682   -254544.42    509.76162    6868.5449    16117.588 
   36900   -254646.53    99.384974   -254547.14    485.70791    6543.7662    16117.588 
   37000   -254646.14    100.25204   -254545.89    489.94539    6600.4828    16117.588 
   37100   -254642.98    102.96664   -254540.01    503.21199    6815.7294    16117.588 
   37200   -254644.15    105.90668   -254538.24    517.58037    7024.6595    16117.588 
   37300   -254642.03    100.10662   -254541.92     489.2347    6591.7772    16117.588 
   37400   -254646.04    102.55607   -254543.48    501.20551    6754.6925    16117.588 
   37500    -254645.3    102.97993   -254542.32    503.27693    6816.9662    16117.588 
   37600   -254641.91    102.75712   -254539.15    502.18804    6765.3201    16117.588 
   37700   -254639.23    105.35327   -254533.87    514.87577     6936.983    16117.588 
   37800   -254641.86    106.08945   -254535.77    518.47361    7024.4182    16117.588 
   37900   -254644.74    104.96288   -254539.78     512.9679    6915.0936    16117.588 
   38000   -254647.07    104.85621   -254542.21     512.4466     6935.348    16117.588 
   38100   -254647.91    103.39805   -254544.51    505.32034    6805.1983    16117.588 
   38200   -254646.52    99.452469   -254547.07    486.03776    6588.8971    16117.588 
   38300   -254647.57    103.09829   -254544.47    503.85537    6820.1868    16117.588 
   38400   -254644.37    104.58822   -254539.78    511.13687    6919.2675    16117.588 
   38500   -254645.21    105.04973   -254540.16    513.39232    6960.5594    16117.588 
   38600   -254641.94    99.540008    -254542.4    486.46558    6553.1508    16117.588 
   38700   -254646.37    102.45482   -254543.91    500.71067    6746.3917    16117.588 
   38800   -254647.73    100.78628   -254546.95     492.5563    6637.3754    16117.588 
   38900   -254649.91     101.2788   -254548.63    494.96328    6670.7761    16117.588 
   39000   -254647.09    97.609689   -254549.49    477.03185    6510.3319    16117.588 
   39100   -254643.04    98.992768   -254544.05    483.79114    6518.6614    16117.588 
   39200   -254649.33    107.57502   -254541.75     525.7338    7084.6302    16117.588 
   39300   -254645.37    101.25658   -254544.12    494.85468    6666.0849    16117.588 
   39400   -254647.86    101.46809   -254546.39     495.8884    6706.0501    16117.588 
   39500   -254649.74    100.91078   -254548.83    493.16473    6692.2221    16117.588 
   39600   -254649.58    97.611315   -254551.97     477.0398    6427.1564    16117.588 
   39700   -254648.32    100.04927   -254548.27    488.95441    6647.8745    16117.588 
   39800   -254643.62    100.06962   -254543.55    489.05388    6585.2833    16117.588 
   39900   -254644.61    101.98516   -254542.63    498.41535    6766.1653    16117.588 
   40000   -254643.91    101.87471   -254542.04    497.87557    6710.3981    16117.588 
   40100   -254645.29     103.3745   -254541.92    505.20528    6905.8553    16117.588 
   40200   -254647.13    103.72442    -254543.4    506.91539    6832.7466    16117.588 
   40300    -254648.7    101.81847   -254546.88    497.60074    6706.1389    16117.588 
   40400   -254647.82    100.03517   -254547.78    488.88553     6648.262    16117.588 
   40500   -254646.73    102.98992   -254543.74    503.32576    6782.3642    16117.588 
   40600   -254645.76       104.84   -254540.92    512.36735    6941.7378    16117.588 
   40700      -254646    103.90863   -254542.09    507.81564    6841.0553    16117.588 
   40800   -254646.79    101.43103   -254545.36    495.70726    6702.6546    16117.588 
   40900   -254649.41    104.01771   -254545.39    508.34872    6849.6602    16117.588 
   41000   -254647.19    100.99242    -254546.2    493.56371    6649.6694    16117.588 
   41100   -254649.03    102.78164   -254546.25     502.3079    6767.1637    16117.588 
   41200   -254644.73    102.26325   -254542.47    499.77443     6760.393    16117.588 
   41300   -254644.16    104.45818   -254539.71    510.50133     6877.642    16117.588 
   41400    -254646.7    104.72192   -254541.97    511.79029    6892.6231    16117.588 
   41500   -254645.58    99.395932   -254546.18    485.76146    6592.7672    16117.588 
   41600   -254644.75    99.309221   -254545.44    485.33769    6645.8532    16117.588 
   41700   -254645.37     101.9162   -254543.46    498.07835    6766.0299    16117.588 
   41800   -254643.97    102.39194   -254541.58    500.40338    6740.8499    16117.588 
   41900   -254643.24    103.43076   -254539.81    505.48022    6877.8154    16117.588 
   42000   -254643.93    106.31139   -254537.62    519.55825    7058.4825    16117.588 
   42100    -254641.9     106.9227   -254534.98     522.5458    7040.5808    16117.588 
   42200   -254641.05      103.167   -254537.89    504.19118    6918.1129    16117.588 
   42300   -254643.37     101.6377   -254541.73    496.71727    6690.1888    16117.588 
   42400   -254645.28     102.2271   -254543.05    499.59775    6730.7682    16117.588 
   42500   -254644.68    102.36943   -254542.31    500.29336    6741.0752    16117.588 
   42600    -254641.4    103.06884   -254538.33    503.71148    6783.7065    16117.588 
   42700   -254641.59    106.58493   -254535.01    520.89507    7019.7601    16117.588 
   42800   -254640.93    101.41633   -254539.51    495.63541    6679.3998    16117.588 
   42900   -254645.79    103.16962   -254542.62      504.204    6795.2056    16117.588 
   43000   -254643.11    101.45225   -254541.66    495.81096    6680.4467    16117.588 
   43100   -254643.61    104.59721   -254539.01    511.18081    6916.6984    16117.588 
   43200   -254640.54    102.00508   -254538.53    498.51274    6913.6237    16117.588 
   43300   -254643.54    103.55767   -254539.99    506.10047    6858.1539    16117.588 
   43400   -254647.08     101.5807    -254545.5    496.43874    6748.7356    16117.588 
   43500   -254645.05    99.653993   -254545.39    487.02264    6558.4797    16117.588 
   43600   -254649.08    103.99658   -254545.08    508.24544    6851.0454    16117.588 
   43700   -254646.89    103.60494   -254543.29    506.33143    6825.5926    16117.588 
   43800   -254644.88     105.0644   -254539.82    513.46406    6921.4512    16117.588 
   43900   -254643.56    103.58751   -254539.98    506.24628    6906.1658    16117.588 
   44000   -254644.55    99.330299   -254545.22     485.4407    6541.8084    16117.588 
   44100   -254644.35    98.526076   -254545.82    481.51036    6546.8589    16117.588 
   44200   -254646.22    103.16329   -254543.05    504.17306    6791.2537    16117.588 
   44300   -254645.17    103.22899   -254541.95    504.49414    6798.2037    16117.588 
   44400   -254645.98    102.79698   -254543.18    502.38286    6794.6743    16117.588 
   44500    -254648.5    103.42916   -254545.07    505.47239    6810.4975    16117.588 
   44600   -254648.58    102.26387   -254546.32    499.77746    6804.7719    16117.588 
   44700      -254645    100.31673   -254544.68    490.26152    6626.0738    16117.588 
   44800   -254645.45    105.85342    -254539.6    517.32008    6972.9975    16117.588 
   44900   -254644.33    105.46842   -254538.87    515.43855    7126.4587    16117.588 
   45000   -254647.11    105.74637   -254541.37    516.79689     7025.422    16117.588 
   45100   -254646.31    102.40091    -254543.9     500.4472    6742.3363    16117.588 
   45200   -254647.71     101.6754   -254546.03    496.90155    6750.8476    16117.588 
   45300   -254646.91    99.800928   -254547.11    487.74073    6572.9045    16117.588 
   45400   -254645.53     103.2492   -254542.28    504.59291     6801.325    16117.588 
   45500   -254641.44    103.26901   -254538.17     504.6897    7005.2047    16117.588 
   45600    -254643.4    103.57752   -254539.82    506.19745    6849.5401    16117.588 
   45700   -254647.76    103.98168   -254543.77    508.17261    6959.4322    16117.588 
   45800   -254648.22    102.18177   -254546.04    499.37625     6768.983    16117.588 
   45900   -254648.45    102.91347   -254545.53    502.95214    6774.5108    16117.588 
   46000   -254646.62    101.30099   -254545.32    495.07176    6842.5013    16117.588 
   46100   -254644.48     103.9871   -254540.49    508.19912     6907.176    16117.588 
   46200   -254643.65     105.5235   -254538.13    515.70772    6992.1127    16117.588 
   46300   -254643.49    102.70519   -254540.79    501.93427    6761.4405    16117.588 
   46400   -254648.11    103.75863   -254544.35    507.08258    6942.6225    16117.588 
   46500   -254643.92    98.132095   -254545.79    479.58492    6505.6301    16117.588 
   46600   -254645.98    101.92279   -254544.06    498.11054    6711.5002    16117.588 
   46700   -254645.74    103.27323   -254542.46    504.71034     6839.343    16117.588 
   46800   -254644.99    101.59499   -254543.39    496.50856    6993.7773    16117.588 
   46900    -254646.9    100.45484   -254546.44    490.93648    6610.5113    16117.588 
   47000   -254647.97    99.991643   -254547.98    488.67278    6582.8028    16117.588 
   47100   -254648.15    101.69536   -254546.46    496.99908    6694.7064    16117.588 
   47200   -254647.34    104.62227   -254542.72    511.30328    6985.2609    16117.588 
   47300   -254647.46    105.05619    -254542.4     513.4239    6984.3449    16117.588 
   47400   -254646.54    100.03638    -254546.5    488.89142    6622.3499    16117.588 
   47500   -254650.41    100.17722   -254550.23    489.57972    6591.3187    16117.588 
   47600   -254647.37    99.098662   -254548.27    484.30866    6521.5896    16117.588 
   47700   -254646.53    101.67404   -254544.86     496.8949    6691.6229    16117.588 
   47800   -254647.72    104.54917   -254543.17    510.94605    6916.8129    16117.588 
   47900   -254650.22    106.65337   -254543.57    521.22954    7023.6478    16117.588 
   48000   -254648.22    100.52142   -254547.69    491.26189     6617.222    16117.588 
   48100   -254650.31    99.753288   -254550.55    487.50791     6638.008    16117.588 
   48200   -254648.13    100.94436   -254547.18    493.32882    6642.4389    16117.588 
   48300   -254645.77     101.8764   -254543.89    497.88383     6706.535    16117.588 
   48400      -254643    100.06554   -254542.93    489.03393    6587.4723    16117.588 
   48500   -254644.51    103.83421   -254540.68    507.45194    6836.7532    16117.588 
   48600    -254638.5    100.55741   -254537.95    491.43778    6646.0686    16117.588 
   48700   -254638.55    102.65171   -254535.89    501.67288    6826.1636    16117.588 
   48800   -254644.75    103.57619   -254541.18    506.19097     6815.287    16117.588 
   48900    -254644.1     100.1807   -254543.92    489.59673    6675.6436    16117.588 
   49000   -254644.39    102.22905   -254542.17     499.6073    6767.9951    16117.588 
   49100    -254642.7    102.77699   -254539.92    502.28517    6764.0072    16117.588 
   49200   -254643.22     102.7082   -254540.51    501.94896    6760.9887    16117.588 
   49300   -254646.24    100.92566   -254545.32    493.23744    6636.7691    16117.588 
   49400   -254649.36    101.70788   -254547.65    497.06026    6739.7579    16117.588 
   49500   -254647.76    102.00557   -254545.75    498.51512    6757.3613    16117.588 
   49600   -254644.29    102.90713   -254541.38    502.92115    6771.2303    16117.588 
   49700   -254642.11    105.68219   -254536.43    516.48324    6955.1272    16117.588 
   49800   -254643.76    106.03379   -254537.72     518.2016    6980.1112    16117.588 
   49900   -254643.87    100.15868   -254543.71    489.48912    6736.0661    16117.588 
   50000   -254644.78    101.80554   -254542.98    497.53752    6815.0207    16117.588 
   50100    -254643.1    101.00684   -254542.09    493.63419     6647.604    16117.588 
   50200   -254643.75    104.59696   -254539.15    511.17961    6915.9324    16117.588 
   50300   -254643.16    105.34466   -254537.81    514.83372    7018.2467    16117.588 
   50400   -254646.28    103.24712   -254543.03    504.58276    6796.5658    16117.588 
   50500   -254645.88    100.45212   -254545.43    490.92321    6638.3671    16117.588 
   50600   -254647.33    103.02335   -254544.31    503.48914    6778.2706    16117.588 
   50700   -254644.29    103.13938   -254541.15     504.0562    6840.5277    16117.588 
   50800   -254647.41    105.16862   -254542.24    513.97338    6945.8119    16117.588 
   50900   -254646.45    99.023097   -254547.42    483.93937    6594.8649    16117.588 
   51000    -254648.3    102.20591   -254546.09    499.49422    6726.1389    16117.588 
   51100   -254646.61     103.6161   -254542.99      506.386    6820.3247    16117.588 
   51200   -254643.83    103.18907   -254540.64    504.29906    6791.8834    16117.588 
   51300   -254644.36    105.38118   -254538.98    515.01217    6963.6042    16117.588 
   51400   -254646.16    104.41918   -254541.74    510.31075    6871.3715    16117.588 
   51500   -254646.95    100.27269   -254546.67    490.04628    6598.8834    16117.588 
   51600      -254649    102.64369   -254546.35     501.6337    6949.0797    16117.588 
   51700   -254647.73     103.8023   -254543.92    507.29598    6829.8695    16117.588 
   51800    -254645.9    105.30945   -254540.59    514.66163    6976.8798    16117.588 
   51900   -254646.65    106.50973   -254540.14    520.52756    7013.3747    16117.588 
   52000    -254647.8    102.00565    -254545.8    498.51551    6824.7219    16117.588 
   52100   -254647.62       99.926   -254547.69    488.35198    6638.6718    16117.588 
   52200   -254648.08    103.10829   -254544.98    503.90425    6816.0603    16117.588 
   52300    -254644.3    102.45999   -254541.84    500.73595    6847.1196    16117.588 
   52400   -254639.02    99.344941   -254539.67    485.51226     6562.857    16117.588 
   52500   -254642.79    103.48991    -254539.3    505.76928    6808.9901    16117.588 
   52600   -254642.36    101.57697   -254540.78    496.42048     6731.728    16117.588 
   52700   -254647.82    104.51576    -254543.3    510.78274     6875.849    16117.588 
   52800   -254647.22     97.97021   -254549.25    478.79376    6556.6184    16117.588 
   52900   -254649.99    99.292809    -254550.7    485.25748    6535.1261    16117.588 
   53000   -254645.87    98.602911   -254547.26    481.88586    6487.7526    16117.588 
   53100   -254647.43    102.94138   -254544.49    503.08854    6793.3814    16117.588 
   53200   -254645.63    102.78556   -254542.84    502.32706     6791.994    16117.588 
   53300   -254647.16    106.02794   -254541.13      518.173    6978.6143    16117.588 
   53400   -254644.16    103.61928   -254540.54    506.40154     6821.732    16117.588 
   53500   -254644.71    101.42232   -254543.29    495.66469    6857.8039    16117.588 
   53600   -254648.25    100.81729   -254547.43    492.70784    6717.5962    16117.588 
   53700    -254646.5    99.626443   -254546.88      486.888    6584.1164    16117.588 
   53800    -254647.6    104.98703   -254542.61    513.08591    6908.1497    16117.588 
   53900      -254649    106.15473   -254542.85    518.79261     7138.792    16117.588 
   54000   -254645.47    102.05595   -254543.42    498.76134    6740.4313    16117.588 
   54100   -254645.11    102.47547   -254542.63    500.81159    6743.2289    16117.588 
   54200   -254642.69    105.43192   -254537.26    515.26018    7005.4878    16117.588 
   54300   -254640.34    106.07644   -254534.27    518.41002    6982.1513    16117.588 
   54400    -254641.5    102.25533   -254539.24    499.73573    6728.1711    16117.588 
   54500   -254643.91    101.06831   -254542.84     493.9346    6733.5076    16117.588 
   54600   -254646.38    101.25682   -254545.12    494.85589    6662.7823    16117.588 
   54700   -254648.85    102.51377   -254546.33    500.99878    6804.7664    16117.588 
   54800   -254644.86    100.34056   -254544.52    490.37796    6600.8114    16117.588 
   54900   -254644.53    105.20149   -254539.32    514.13402    7031.9829    16117.588 
   55000   -254644.14    104.60559   -254539.54    511.22177    6982.2294    16117.588 
   55100   -254642.34    99.817075   -254542.52    487.81964    6623.4332    16117.588 
   55200   -254646.78    103.89217   -254542.89    507.73518    6837.9705    16117.588 
   55300    -254647.9    103.87771   -254544.02    507.66451    6834.3442    16117.588 
   55400   -254646.77    100.75808   -254546.01    492.41844     6670.137    16117.588 
   55500   -254649.72    101.54531   -254548.18    496.26578    6683.8182    16117.588 
   55600   -254648.75    102.05233   -254546.69    498.74364    6716.6185    16117.588 
   55700   -254643.67    101.32631   -254542.34    495.19547    6667.6823    16117.588 
   55800   -254641.99    102.23161   -254539.76    499.61979    6729.2302    16117.588 
   55900   -254644.14    104.21635   -254539.92    509.31948    6928.9592    16117.588 
   56000   -254645.21    102.47335   -254542.74    500.80122    6737.2403    16117.588 
   56100   -254646.51    98.927924   -254547.58    483.47424    6509.9319    16117.588 
   56200   -254646.46    98.861214    -254547.6    483.14822    6498.6956    16117.588 
   56300   -254646.96    104.06408    -254542.9    508.57535    6915.8618    16117.588 
   56400   -254644.42      101.908   -254542.52    498.03828    6767.0223    16117.588 
   56500   -254646.84    103.61513   -254543.22    506.38126    6822.1073    16117.588 
   56600   -254643.24    98.775719   -254544.47     482.7304    6501.1379    16117.588 
   56700   -254643.02    98.710725   -254544.31    482.41276    6495.3319    16117.588 
   56800   -254648.19    106.70331   -254541.48     521.4736    7026.0809    16117.588 
   56900   -254642.99    104.02684   -254538.97    508.39333    6965.7907    16117.588 
   57000   -254643.27    105.14796   -254538.12    513.87239    6919.5276    16117.588 
   57100   -254645.95    102.96868   -254542.98    503.22195    6836.6331    16117.588 
   57200   -254645.49    100.44056   -254545.04    490.86668    6901.6567    16117.588 
   57300   -254645.37    101.61395   -254543.76    496.60123    6829.9453    16117.588 
   57400   -254644.26    101.87532   -254542.38    497.87855    6704.6521    16117.588 
   57500   -254643.79    103.03388   -254540.76    503.54062    6812.8338    16117.588 
   57600   -254642.82    106.95311   -254535.87     522.6944     7042.015    16117.588 
   57700   -254640.52    103.01739    -254537.5    503.46001    6774.8626    16117.588 
   57800   -254644.08    102.26573   -254541.82    499.78655    6731.6559    16117.588 
   57900   -254646.51    102.58216   -254543.93    501.33301    6823.6791    16117.588 
   58000    -254647.2    101.15531   -254546.04     494.3598    6652.7787    16117.588 
   58100   -254649.84    101.36745   -254548.47    495.39652    6673.7498    16117.588 
   58200   -254651.14     98.63272    -254552.5    482.03154    6500.0541    16117.588 
   58300   -254652.07    100.99529   -254551.07    493.57777    6684.8072    16117.588 
   58400   -254648.05    102.44575    -254545.6    500.66633    6948.3181    16117.588 
   58500   -254647.43     104.0224    -254543.4    508.37162    7025.7296    16117.588 
   58600   -254647.82    103.98011   -254543.84    508.16495    6931.0888    16117.588 
   58700   -254648.54    101.52317   -254547.01    496.15757    6711.3009    16117.588 
   58800    -254646.1    98.720908   -254547.38    482.46253    6760.8013    16117.588 
   58900   -254646.69    105.48318   -254541.21    515.51069    6941.1938    16117.588 
   59000   -254643.82    103.47133   -254540.34    505.67848    6811.6162    16117.588 
   59100   -254642.51    99.910074    -254542.6    488.27415     6601.451    16117.588 
   59200   -254645.99    102.64942   -254543.34    501.66171    6827.4484    16117.588 
   59300   -254645.57    100.54469   -254545.02    491.37559     6616.059    16117.588 
   59400   -254647.23    100.94302   -254546.29    493.32228    6646.7274    16117.588 
   59500   -254647.31     102.2005   -254545.11    499.46779    6806.5888    16117.588 
   59600   -254643.57    102.47886    -254541.1    500.82816    6748.5308    16117.588 
   59700   -254642.45    104.24236   -254538.21    509.44661    6865.9372    16117.588 
   59800   -254641.51    103.58792   -254537.92    506.24826    6821.7352    16117.588 
   59900   -254644.78    100.93234   -254543.85    493.27011     6741.406    16117.588 
   60000   -254646.04    101.79285   -254544.25    497.47554     6703.145    16117.588 
   60100   -254643.84    99.637874    -254544.2    486.94387    6561.1016    16117.588 
   60200   -254642.95    102.37674   -254540.57    500.32907     6737.468    16117.588 
   60300   -254641.66    102.49827   -254539.16      500.923     6772.626    16117.588 
   60400   -254643.54    102.91712   -254540.62    502.96999    6774.9995    16117.588 
   60500   -254643.98    97.910302   -254546.07    478.50099    6478.9727    16117.588 
   60600   -254647.44    100.86122   -254546.58    492.92255    6644.2865    16117.588 
   60700   -254648.16    104.17273   -254543.98    509.10634    6913.4088    16117.588 
   60800   -254643.66    100.13932   -254543.52    489.39452    6637.4057    16117.588 
   60900   -254645.01    101.79176   -254543.22    497.47022    6703.9465    16117.588 
   61000   -254647.68    103.50321   -254544.18    505.83431    6842.4904    16117.588 
   61100   -254646.66    100.99445   -254545.67    493.57364    6646.9706    16117.588 
   61200   -254646.92    100.53344   -254546.39    491.32061    6616.9668    16117.588 
   61300   -254644.58    99.305648   -254545.27    485.32023    6514.6669    16117.588 
   61400   -254645.39    102.59194    -254542.8    501.38078    6804.8331    16117.588 
   61500   -254646.25    105.58687   -254540.67    516.01742    7030.2959    16117.588 
   61600   -254646.08    104.44104   -254541.64    510.41758    6911.9408    16117.588 
   61700   -254647.59    101.92357   -254545.66    498.11438    6714.2904    16117.588 
   61800   -254650.63    102.50208   -254548.12    500.94165    6747.1683    16117.588 
   61900   -254650.45    102.53749   -254547.91    501.11467     6743.208    16117.588 
   62000   -254648.26    105.36847   -254542.89    514.95008    6980.2464    16117.588 
   62100   -254647.03    106.22748   -254540.81    519.14815    7033.1064    16117.588 
   62200   -254646.24    104.61869   -254541.62    511.28578    6889.4251    16117.588 
   62300   -254647.08    103.99529   -254543.09    508.23915    6849.7369    16117.588 
   62400   -254648.74    104.46191   -254544.28    510.51958    6872.8033    16117.588 
   62500   -254649.78    102.72823   -254547.05    502.04684     6766.406    16117.588 
   62600    -254649.4    97.848626   -254551.55    478.19957    6440.6075    16117.588 
   62700   -254649.97    100.93573   -254549.04    493.28667    6677.6034    16117.588 
   62800   -254647.13    101.53343   -254545.59    496.20773    6684.3895    16117.588 
   62900   -254645.77    101.72539   -254544.05    497.14582    6741.9868    16117.588 
   63000    -254644.1    101.67351   -254542.43     496.8923    6689.5716    16117.588 
   63100   -254646.97    104.77364    -254542.2    512.04304    6950.6347    16117.588 
   63200   -254645.78    103.17628   -254542.61    504.23655    6966.5135    16117.588 
   63300   -254648.91    103.28956   -254545.62    504.79017    6849.7555    16117.588 
   63400    -254648.2    99.360566   -254548.84    485.58863    6562.2241    16117.588 
   63500   -254645.63    99.705643   -254545.92    487.27506    6735.7247    16117.588 
   63600    -254646.2    103.17364   -254543.03    504.22361    6869.5429    16117.588 
   63700   -254648.54    106.31582   -254542.22    519.57992    6998.9714    16117.588 
   63800   -254647.03    102.53331   -254544.49    501.09426    6740.8642    16117.588 
   63900   -254644.89    99.721161   -254545.17     487.3509    6572.0554    16117.588 
   64000   -254645.64    106.57762   -254539.06    520.85934    7049.3648    16117.588 
   64100   -254640.28    102.28503      -254538    499.88088    6730.2703    16117.588 
   64200   -254642.49     102.9539   -254539.54    503.14972    6828.4607    16117.588 
   64300   -254646.33    102.03141    -254544.3    498.64138    6753.1977    16117.588 
   64400   -254645.47    100.23637   -254545.24     489.8688    6626.4595    16117.588 
   64500   -254648.57    103.34753   -254545.22    505.07346    6840.3078    16117.588 
   64600   -254647.62    103.03561   -254544.58    503.54907     6815.048    16117.588 
   64700   -254647.11    105.35772   -254541.75    514.89754    6963.0422    16117.588 
   64800   -254643.55     103.7775   -254539.77    507.17477     6974.795    16117.588 
   64900   -254643.07    101.33156   -254541.74    495.22114    6671.4447    16117.588 
   65000   -254645.57    99.835413   -254545.74    487.90926    6611.6848    16117.588 
   65100   -254646.78    101.15078   -254545.63    494.33766    6682.9811    16117.588 
   65200   -254642.24    100.45032   -254541.79     490.9144    6604.9392    16117.588 
   65300   -254645.81    108.11083    -254537.7    528.35236    7183.3856    16117.588 
   65400   -254646.62    104.31428    -254542.3    509.79808    6952.2739    16117.588 
   65500   -254644.66    100.31293   -254544.34    490.24298    6629.7571    16117.588 
   65600   -254644.78    101.13771   -254543.64    494.27378    6820.7237    16117.588 
   65700   -254648.11    104.95884   -254543.15    512.94813    6938.5311    16117.588 
   65800   -254647.97    102.66356   -254545.31    501.73081    6752.4745    16117.588 
   65900   -254648.23    100.57927   -254547.65    491.54458    6692.3647    16117.588 
   66000    -254645.9    98.654829   -254547.25    482.13959    6492.5014    16117.588 
   66100   -254646.14    104.21279   -254541.92    509.30208    6957.6341    16117.588 
   66200   -254643.48    102.44954   -254541.03    500.68487    6743.7129    16117.588 
   66300   -254648.14     105.2822   -254542.85    514.52847    6931.3583    16117.588 
   66400   -254645.55    99.573419   -254545.97    486.62886    6545.6715    16117.588 
   66500   -254644.41    100.19277   -254544.22    489.65573    6592.6489    16117.588 
   66600   -254641.39    103.50934   -254537.89    505.86424    6814.8587    16117.588 
   66700    -254642.5    104.01699   -254538.49    508.34522    6846.9268    16117.588 
   66800   -254645.79    103.75226   -254542.04    507.05145    6880.6794    16117.588 
   66900   -254646.92    101.77204   -254545.14    497.37383    6699.0612    16117.588 
   67000   -254643.25    98.600124   -254544.65    481.87224    6608.9415    16117.588 
   67100   -254643.24    102.74249    -254540.5    502.11655    6790.6343    16117.588 
   67200   -254644.01    104.01904   -254539.99    508.35523    6848.0461    16117.588 
   67300   -254642.91    102.49504   -254540.42    500.90723    6795.1095    16117.588 
   67400   -254642.64    102.18701   -254540.45    499.40186      6812.69    16117.588 
   67500   -254642.41    100.18387   -254542.23     489.6122    6593.4759    16117.588 
   67600   -254645.61    99.868494   -254545.74    488.07094    6701.0932    16117.588 
   67700   -254643.65     99.84404    -254543.8    487.95143    6628.7937    16117.588 
   67800   -254645.21    106.02836   -254539.18    518.17505    7059.6769    16117.588 
   67900      -254642    102.68946   -254539.31     501.8574     6824.212    16117.588 
   68000   -254644.49    102.79367    -254541.7    502.36666    6929.7545    16117.588 
   68100   -254646.42     102.1847   -254544.24    499.39057    6798.3292    16117.588 
   68200   -254645.39    100.39984   -254544.99    490.66771    6645.8544    16117.588 
   68300   -254645.56     101.2341   -254544.33    494.74483    6661.3148    16117.588 
   68400   -254645.57    101.72764   -254543.85    497.15683      6699.25    16117.588 
   68500   -254642.89    99.316918   -254543.58    485.37531    6633.4942    16117.588 
   68600   -254646.31    103.49568   -254542.81    505.79749    6851.8984    16117.588 
   68700    -254645.6    102.50042    -254543.1    500.93352    6749.7267    16117.588 
   68800   -254645.43    101.85196   -254543.58    497.76441    6700.0716    16117.588 
   68900   -254643.64    101.17645   -254542.47     494.4631    6754.1891    16117.588 
   69000   -254643.46    103.09931   -254540.36    503.86037     6823.901    16117.588 
   69100   -254644.25    104.03231   -254540.22    508.42009    7010.2298    16117.588 
   69200   -254648.84    101.61215   -254547.22    496.59241    6689.4616    16117.588 
   69300   -254649.03    101.76366   -254547.27    497.33288     6752.049    16117.588 
   69400   -254646.76    103.65275    -254543.1    506.56513    6825.4389    16117.588 
   69500   -254640.51     100.9354   -254539.58    493.28507    6707.8935    16117.588 
   69600   -254645.39    107.03056   -254538.36    523.07293      7075.26    16117.588 
   69700   -254646.91    104.30532   -254542.61     509.7543    6899.1149    16117.588 
   69800   -254647.94    102.84347    -254545.1    502.61006    6772.5275    16117.588 
   69900   -254647.77     102.3088   -254545.46    499.99705    6794.4553    16117.588 
   70000   -254645.56    102.67602   -254542.88    501.79169    6757.9498    16117.588 
   70100   -254643.96    104.16765   -254539.79    509.08148    6857.6346    16117.588 
   70200   -254641.42    104.59282   -254536.83    511.15937    6889.5136    16117.588 
   70300   -254640.54    103.93943    -254536.6    507.96615    6878.1531    16117.588 
   70400   -254645.21     103.4226   -254541.79    505.44032    6808.6052    16117.588 
   70500   -254644.34    99.778293   -254544.56    487.63011    6685.0095    16117.588 
   70600   -254646.91    103.55402   -254543.36    506.08259     6822.215    16117.588 
   70700   -254646.52    104.50967   -254542.01    510.75299    6909.3479    16117.588 
   70800   -254643.83     98.07295   -254545.76    479.29587    6452.9332    16117.588 
   70900    -254650.8    101.62008   -254549.18    496.63119    6692.5456    16117.588 
   71000   -254651.69    102.82248   -254548.86    502.50744    6771.9964    16117.588 
   71100   -254649.72    103.23399   -254546.49    504.51859    6826.0601    16117.588 
   71200   -254645.24    102.69043   -254542.55     501.8621    6762.1957    16117.588 
   71300   -254645.63    105.32208   -254540.31    514.72337    6935.2382    16117.588 
   71400   -254642.58    108.28016    -254534.3    529.17987    7193.9712    16117.588 
   71500   -254645.85    108.97701   -254536.87    532.58547    7177.8675    16117.588 
   71600   -254647.53    104.76822   -254542.76    512.01657    6899.1592    16117.588 
   71700   -254647.64      101.908   -254545.73     498.0383    6731.2989    16117.588 
   71800   -254646.44    100.09171   -254546.35    489.16181     6642.909    16117.588 
   71900   -254645.86    101.40431   -254544.45    495.57667    6675.6971    16117.588 
   72000   -254641.31    100.34462   -254540.96    490.39782     6606.266    16117.588 
   72100   -254643.89    105.15846   -254538.73    513.92371    6951.6847    16117.588 
   72200   -254645.26    102.23399   -254543.02    499.63145    6781.9794    16117.588 
   72300   -254645.68    98.654695   -254547.02    482.13893    6574.1745    16117.588 
   72400   -254647.77    103.18589   -254544.59    504.28349      6870.54    16117.588 
   72500   -254643.87     102.6994   -254541.17    501.90597     6752.381    16117.588 
   72600   -254641.34    102.36729   -254538.98    500.28289    6735.8176    16117.588 
   72700   -254644.17    105.41535   -254538.75    515.17917    6944.5239    16117.588 
   72800   -254643.15    101.94451   -254541.21    498.21669    6711.7691    16117.588 
   72900   -254644.35    102.49613   -254541.86    500.91257    6750.7468    16117.588 
   73000   -254641.81    100.65016   -254541.16    491.89106    6627.5482    16117.588 
   73100   -254642.85    101.68445   -254541.16    496.94578     6693.392    16117.588 
   73200   -254642.14    100.30686   -254541.83    490.21329    6601.9153    16117.588 
   73300   -254642.94    99.294944   -254543.64    485.26792    6537.3782    16117.588 
   73400    -254647.4    100.60404   -254546.79    491.66566    6624.4504    16117.588 
   73500   -254648.47    100.74472   -254547.73    492.35316    6682.9788    16117.588 
   73600   -254644.32    100.08464   -254544.24    489.12728    6589.0346    16117.588 
   73700   -254643.69    104.54605   -254539.15    510.93079    6884.0927    16117.588 
   73800   -254645.37    104.86334   -254540.51    512.48142    6907.8194    16117.588 
   73900   -254642.68    99.425197   -254543.25    485.90448     6583.802    16117.588 
   74000   -254646.59    101.36759   -254545.23    495.39722    6700.8843    16117.588 
   74100   -254646.71    100.66947   -254546.04    491.98539    6700.5753    16117.588 
   74200   -254650.17    102.11474   -254548.05    499.04865    6717.1187    16117.588 
   74300   -254648.79    97.848654   -254550.94     478.1997    6499.4295    16117.588 
   74400   -254648.82     101.2317   -254547.59    494.73311    6659.9822    16117.588 
   74500   -254646.37    102.62154   -254543.75    501.52543    6754.3907    16117.588 
   74600   -254648.49    105.01816   -254543.47    513.23807    6913.8099    16117.588 
   74700   -254645.63    99.840628   -254545.79    487.93475    6620.2281    16117.588 
   74800   -254647.37    98.952482   -254548.42    483.59426    6554.6781    16117.588 
   74900    -254650.7    97.311956   -254553.39    475.57679    6405.3861    16117.588 
   75000   -254650.95    99.717984   -254551.23    487.33537    6622.6627    16117.588 
   75100   -254648.41    101.68356   -254546.72    496.94142     6692.723    16117.588 
   75200   -254646.97    102.92758   -254544.04    503.02112    6835.7683    16117.588 
   75300   -254643.86    100.41777   -254543.44    490.75531    6608.6001    16117.588 
   75400   -254644.17    101.95545   -254542.22    498.27016    6803.5729    16117.588 
   75500   -254642.32    102.82014    -254539.5    502.49604    6881.3548    16117.588 
   75600   -254641.68    104.40948   -254537.27    510.26333    7026.9385    16117.588 
   75700   -254644.44    104.94474   -254539.49    512.87925    7032.8616    16117.588 
   75800   -254645.32    100.79495   -254544.53    492.59865    6633.2833    16117.588 
   75900   -254646.41    100.98173   -254545.43    493.51146    6858.7493    16117.588 
   76000   -254646.02     103.0333   -254542.99    503.53775    6857.7375    16117.588 
   76100      -254643    103.37306   -254539.63    505.19821    6804.6037    16117.588 
   76200    -254641.4    107.70595   -254533.69    526.37368     7122.771    16117.588 
   76300   -254641.32    104.02398    -254537.3    508.37936    6840.8185    16117.588 
   76400    -254643.6    103.02832   -254540.57    503.51341    6779.7235    16117.588 
   76500   -254645.84    102.80558   -254543.03    502.42485    6767.6203    16117.588 
   76600   -254645.89    102.40927   -254543.48    500.48803    6766.3095    16117.588 
   76700   -254640.41    100.08738   -254540.33    489.14064    6585.1848    16117.588 
   76800   -254640.14    103.29436   -254536.85    504.81359    6796.8173    16117.588 
   76900   -254639.56    102.11345   -254537.44    499.04234    6750.7334    16117.588 
   77000    -254643.9    102.34231   -254541.56    500.16079    6765.0113    16117.588 
   77100   -254645.68    102.44249   -254543.23    500.65042     6768.263    16117.588 
   77200   -254646.58    103.32272   -254543.25    504.95222    6800.6942    16117.588 
   77300   -254646.47    103.05628   -254543.41    503.65006    6783.1182    16117.588 
   77400   -254646.16    102.89949   -254543.26    502.88382    6826.3002    16117.588 
   77500   -254643.17    101.17037      -254542    494.43341    6706.8789    16117.588 
   77600   -254644.62    104.30815   -254540.31    509.76815    6991.0032    16117.588 
   77700   -254642.66    106.45877    -254536.2    520.27853    7033.4679    16117.588 
   77800    -254643.7    106.26418   -254537.44     519.3275     7105.441    16117.588 
   77900   -254645.64    103.13102   -254542.51    504.01536    6841.9456    16117.588 
   78000   -254646.97    102.94439   -254544.03    503.10327    6829.5717    16117.588 
   78100    -254649.3    102.81335   -254546.49    502.46287    6767.5991    16117.588 
   78200   -254649.62    101.19497   -254548.42    494.55361    6727.2924    16117.588 
   78300   -254643.64    98.527315   -254545.11    481.51641    6540.2418    16117.588 
   78400   -254643.98    103.27251    -254540.7    504.70681    6796.2739    16117.588 
   78500   -254643.86    102.87308   -254540.98    502.75478     6865.895    16117.588 
   78600   -254643.95    99.983545   -254543.96    488.63321    6579.4854    16117.588 
   78700   -254648.19    103.94376   -254544.24    507.98731    6878.6872    16117.588 
   78800   -254647.87    104.24654   -254543.62    509.46703    6865.1105    16117.588 
   78900   -254647.18    102.58784   -254544.59    501.36074    6755.9185    16117.588 
   79000   -254644.47    100.02315   -254544.45    488.82675    6657.3009    16117.588 
   79100   -254642.57    102.30738   -254540.27     499.9901    6788.0061    16117.588 
   79200    -254644.9    106.48406   -254538.41    520.40209    7055.9288    16117.588 
   79300   -254641.95    101.70697   -254540.24    497.05581    6723.0837    16117.588 
   79400    -254645.6    100.16858   -254545.43    489.53751    6620.1709    16117.588 
   79500    -254647.2     101.0338   -254546.17    493.76593    6653.0872    16117.588 
   79600   -254643.37    99.413268   -254543.95    485.84618    6582.5009    16117.588 
   79700   -254646.91    105.22171   -254541.68    514.23282     6973.481    16117.588 
   79800   -254645.76    104.19285   -254541.56    509.20464    6886.6205    16117.588 
   79900   -254647.03    101.02286   -254546.01     493.7125    6650.7561    16117.588 
   80000   -254645.94    96.779065   -254549.16    472.97248    6368.9121    16117.588 
   80100   -254646.16    100.76564    -254545.4     492.4554    6635.4313    16117.588 
   80200   -254646.81    103.72469   -254543.09    506.91668    6829.1476    16117.588 
   80300   -254643.91    102.08215   -254541.82    498.88935      6762.78    16117.588 
   80400   -254644.26    105.45986    -254538.8     515.3967    6990.0943    16117.588 
   80500   -254642.44    105.46502   -254536.98    515.42191    7051.9179    16117.588 
   80600   -254642.97    101.97332   -254540.99    498.35753    6739.8584    16117.588 
   80700   -254644.94    101.27457   -254543.66    494.94261    6765.2988    16117.588 
   80800   -254645.29    102.04624   -254543.25    498.71387    6758.8462    16117.588 
   80900   -254642.87    101.51337   -254541.36    496.10966    6707.7998    16117.588 
   81000   -254642.25    104.96391   -254537.29    512.97295    6995.0668    16117.588 
   81100   -254642.46    104.24116   -254538.22    509.44075     6948.182    16117.588 
   81200   -254645.13     101.4451   -254543.68    495.77604     6673.597    16117.588 
   81300   -254645.46    100.20462   -254545.25    489.71362    6640.7966    16117.588 
   81400   -254646.25     102.2887   -254543.96    499.89881    6785.0768    16117.588 
   81500   -254643.57    101.11998   -254542.45     494.1871    6684.1611    16117.588 
   81600   -254644.94    106.88001   -254538.06    522.33715    7093.2203    16117.588 
   81700   -254641.53    107.04245   -254534.49    523.13102    7078.1139    16117.588 
   81800   -254645.17    109.27121    -254535.9    534.02327    7199.5574    16117.588 
   81900   -254644.16    101.09743   -254543.06    494.07691    6695.8579    16117.588 
   82000   -254648.89    103.22848   -254545.66    504.49163    6907.0036    16117.588 
   82100   -254645.38    99.409301   -254545.97     485.8268    6593.8464    16117.588 
   82200   -254642.45    100.38797   -254542.07    490.60968    6758.2355    16117.588 
   82300   -254646.66     107.2904   -254539.37     524.3428    7066.9972    16117.588 
   82400   -254645.58    102.66393   -254542.91    501.73261    6760.7717    16117.588 
   82500   -254645.32     101.2923   -254544.03    495.02928    6668.2529    16117.588 
   82600   -254644.69    100.64399   -254544.05    491.86088     6678.319    16117.588 
   82700   -254644.17    102.10436   -254542.06    498.99792    6718.1645    16117.588 
   82800   -254637.85    101.71361   -254536.14    497.08828    6899.2463    16117.588 
   82900   -254642.46    106.97314   -254535.49     522.7923    7044.7355    16117.588 
   83000   -254644.19    105.78116   -254538.41    516.96696    6960.7732    16117.588 
   83100   -254645.34    103.62899   -254541.71    506.44898    6854.3585    16117.588 
   83200   -254643.52    100.61004   -254542.91    491.69496    6732.2292    16117.588 
   83300   -254647.71    106.27991   -254541.43    519.40439     6996.737    16117.588 
   83400   -254642.11    103.23781   -254538.88    504.53722    6836.3539    16117.588 
   83500   -254639.93    104.40962   -254535.52    510.26403    6931.4354    16117.588 
   83600   -254640.72    101.67058   -254539.05    496.87797    6761.2801    16117.588 
   83700   -254644.08    102.37153   -254541.71     500.3036    6739.5091    16117.588 
   83800   -254643.16    99.319373   -254543.84    485.38731    6533.5885    16117.588 
   83900   -254646.97    102.62779   -254544.34    501.55599    6795.4884    16117.588 
   84000   -254648.27    100.38281   -254547.88    490.58447    6608.5718    16117.588 
   84100   -254649.19    97.523715   -254551.67    476.61168    6475.2166    16117.588 
   84200   -254652.77    100.09803   -254552.68    489.19271    6588.7461    16117.588 
   84300   -254648.13    101.30832   -254546.83    495.10759    6716.9444    16117.588 
   84400   -254646.56    102.20965   -254544.35    499.51246    6731.3386    16117.588 
   84500    -254646.7    103.44718   -254543.25    505.56048    6811.1965    16117.588 
   84600   -254646.11    101.37878   -254544.74     495.4519    6710.5535    16117.588 
   84700   -254645.43     98.19965   -254547.23    479.91507    6563.9395    16117.588 
   84800   -254647.71    100.85042   -254546.86    492.86973    6735.4796    16117.588 
   84900   -254642.07    99.295198   -254542.78    485.26916    6565.0507    16117.588 
   85000    -254645.3    105.12353   -254540.17    513.75302    6922.4375    16117.588 
   85100   -254641.79    100.32438   -254541.46    490.29891    6672.1699    16117.588 
   85200    -254645.7    99.419697   -254546.28    485.87761    6641.0111    16117.588 
   85300   -254649.31    100.47109   -254548.84    491.01589    6693.3725    16117.588 
   85400   -254651.17    104.32177   -254546.84    509.83468    6872.2658    16117.588 
   85500   -254647.58     101.6342   -254545.95    496.70017    6746.7435    16117.588 
   85600   -254644.84    101.62492   -254543.21    496.65482    6690.7476    16117.588 
   85700   -254642.75      104.883   -254537.86    512.57752    6931.1051    16117.588 
   85800   -254642.45    105.77528   -254536.67    516.93822    6966.4304    16117.588 
   85900   -254644.27    101.27013      -254543    494.92091     6668.789    16117.588 
   86000   -254644.83    101.25563   -254543.58    494.85008     6699.699    16117.588 
   86100    -254646.8    103.77258   -254543.02    507.15075    6833.1968    16117.588 
   86200   -254648.85    105.38067   -254543.46     515.0097    6972.8996    16117.588 
   86300   -254645.11    100.44603   -254544.67    490.89343     6641.193    16117.588 
   86400    -254648.9    102.99098   -254545.91    503.33095    6854.7444    16117.588 
   86500   -254648.73    99.093094   -254549.64    484.28145    6601.4273    16117.588 
   86600   -254650.64    101.35762   -254549.28    495.34848    6673.3786    16117.588 
   86700   -254645.97     102.2924   -254543.68    499.91691    6734.6058    16117.588 
   86800   -254646.27    104.06009   -254542.21    508.55581    6942.9088    16117.588 
   86900   -254645.69    102.09653    -254543.6    498.95967    6723.2151    16117.588 
   87000   -254647.66    102.76596    -254544.9    502.23123    6801.1507    16117.588 
   87100   -254645.48    104.08376    -254541.4    508.67152    6922.3517    16117.588 
   87200   -254644.76    106.62384   -254538.13    521.08523     7022.482    16117.588 
   87300    -254646.6    106.05963   -254540.54    518.32784    6987.3203    16117.588 
   87400   -254646.61    103.15504   -254543.46    504.13273     6792.275    16117.588 
   87500   -254646.87    101.48463   -254545.38    495.96923    6682.1196    16117.588 
   87600   -254647.75    101.92505   -254545.82    498.12158    6710.7619    16117.588 
   87700   -254646.89    100.54827   -254546.34    491.39307    6619.9983    16117.588 
   87800   -254648.41    103.36017   -254545.05    505.13522    6857.4987    16117.588 
   87900    -254646.3    105.09574    -254541.2     513.6172      6945.07    16117.588 
   88000   -254647.81    108.17456   -254539.64    528.66381    7234.7588    16117.588 
   88100   -254646.52     102.5962   -254543.92    501.40161    6753.6853    16117.588 
   88200   -254645.31    99.399352   -254545.91    485.77817    6582.2498    16117.588 
   88300   -254645.88    101.32894   -254544.56    495.20831    6671.2847    16117.588 
[...]
  408900   -254650.13     105.1103   -254545.02    513.68838    6922.7363    16117.588 
  409000   -254647.43    100.66766   -254546.76    491.97659    6633.2031    16117.588 
  409100   -254646.48    100.12596   -254546.36    489.32919     6593.754    16117.588 
  409200   -254644.08    100.40301   -254543.68     490.6832    6610.1516    16117.588 
  409300   -254643.03    103.28868   -254539.74    504.78586    6833.7777    16117.588 
  409400   -254643.38    103.72919   -254539.65    506.93867    6916.5319    16117.588 
  409500   -254645.92    104.34373   -254541.58    509.94201    6875.1762    16117.588 
  409600   -254643.32    99.033945   -254544.28    483.99238    6553.8661    16117.588 
  409700   -254646.87    102.48108   -254544.39    500.83901    6750.6633    16117.588 
  409800   -254646.94    101.57098   -254545.37    496.39121    6805.4944    16117.588 
  409900   -254649.66    103.77996   -254545.88     507.1868    6877.1086    16117.588 
  410000   -254650.82    102.28253   -254548.54    499.86868    6912.8139    16117.588 
  410100   -254650.58    97.256022   -254553.33    475.30343    6403.1244    16117.588 
  410200   -254648.58    98.459475   -254550.12    481.18487    6482.8066    16117.588 
  410300   -254646.01    99.642096   -254546.37     486.9645    6558.6589    16117.588 
  410400   -254648.37    105.60287   -254542.77    516.09563    6955.6225    16117.588 
  410500    -254644.6    103.49608   -254541.11    505.79944    6817.2517    16117.588 
  410600   -254645.32    104.66876   -254540.65    511.53048    6891.8959    16117.588 
  410700   -254645.17    100.48452   -254544.68    491.08152    6757.5352    16117.588 
  410800    -254646.2    97.799447    -254548.4    477.95922    6462.5324    16117.588 
  410900   -254647.14     100.7096   -254546.43    492.18153    6656.7873    16117.588 
  411000   -254647.07    103.03814   -254544.03    503.56143    6933.6645    16117.588 
  411100   -254646.09    102.00172   -254544.09    498.49632    6717.9621    16117.588 
  411200    -254645.6    102.51464   -254543.09      501.003    6853.0977    16117.588 
  411300   -254644.49    102.51561   -254541.97    501.00776    6752.2581    16117.588 
  411400   -254643.83    104.33076    -254539.5    509.87864    6919.7776    16117.588 
  411500   -254645.54    106.12646   -254539.42    518.65448    7087.2855    16117.588 
  411600   -254647.38    103.21351   -254544.16    504.41849    6797.7803    16117.588 
  411700   -254648.57    102.35908   -254546.21    500.24275     6743.348    16117.588 
  411800   -254647.82    102.89305   -254544.93    502.85237    6800.8883    16117.588 
  411900   -254645.84    103.95565   -254541.89    508.04544    6925.1273    16117.588 
  412000   -254642.24    106.13943    -254536.1    518.71786    7140.8724    16117.588 
  412100   -254641.08    107.01039   -254534.07    522.97433    7114.3885    16117.588 
  412200   -254643.84    106.05442   -254537.78     518.3024    7013.1981    16117.588 
  412300   -254645.99    105.21215   -254540.77    514.18612    6932.8905    16117.588 
  412400   -254646.69    102.82788   -254543.86    502.53387    6882.7073    16117.588 
  412500   -254645.57    100.76502    -254544.8     492.4524    6637.0443    16117.588 
  412600   -254646.47     101.5636    -254544.9    496.35517    6692.2739    16117.588 
  412700   -254646.38    105.82883   -254540.56    517.19992    7071.0767    16117.588 
  412800   -254639.37    101.91542   -254537.46    498.07452    6713.0589    16117.588 
  412900   -254643.14    105.27708   -254537.87    514.50342    6971.6972    16117.588 
  413000   -254644.85    101.99835   -254542.85    498.47985    6777.1572    16117.588 
  413100   -254644.26    100.35142   -254543.91    490.43107    6597.6487    16117.588 
  413200   -254650.46    106.45272   -254544.01    520.24892    7075.5516    16117.588 
  413300    -254645.9    99.906789   -254545.99    488.25809    6575.6024    16117.588 
  413400   -254649.07     103.7688    -254545.3    507.13225    6832.6524    16117.588 
  413500   -254642.07     102.3789   -254539.69    500.33963    6839.3146    16117.588 
  413600    -254644.3    104.59839    -254539.7    511.18657    6890.7451    16117.588 
  413700   -254644.57    102.93286   -254541.64    503.04693    6808.8488    16117.588 
  413800   -254646.12    100.66175   -254545.46    491.94769    6653.2259    16117.588 
  413900   -254645.47    100.08812   -254545.38    489.14429    6589.0065    16117.588 
  414000   -254645.28    101.03921   -254544.24    493.79241    6653.3357    16117.588 
  414100   -254648.15    106.17871   -254541.97    518.90981    7045.1441    16117.588 
  414200   -254643.52    101.98491   -254541.53    498.41415    6717.3775    16117.588 
  414300   -254650.01    103.57621   -254546.43    506.19107    6822.1808    16117.588 
  414400   -254647.84     98.88085   -254548.96    483.24418    6592.2227    16117.588 
  414500   -254650.95    104.57802   -254546.38    511.08703    6887.7996    16117.588 
  414600   -254648.19    102.61071   -254545.58     501.4725    6846.1702    16117.588 
  414700   -254647.01    102.30159   -254544.71    499.96179    6736.9041    16117.588 
  414800   -254641.55    102.60736   -254538.94    501.45614    6789.6808    16117.588 
  414900    -254643.8     105.5093    -254538.3    515.63834    7039.6137    16117.588 
  415000   -254642.57    101.78145   -254540.79    497.41982    6705.0552    16117.588 
  415100   -254644.23    102.21712   -254542.01    499.54901    6730.9735    16117.588 
  415200   -254647.93    102.46861   -254545.46    500.77806    6776.3035    16117.588 
  415300    -254647.9    99.716063   -254548.19    487.32599    6566.4649    16117.588 
  415400   -254650.13     103.9942   -254546.13    508.23382    6848.8588    16117.588 
  415500    -254647.2    102.58976   -254544.61    501.37014     6752.547    16117.588 
  415600   -254644.84     102.2539   -254542.59    499.72876    6824.1641    16117.588 
  415700    -254646.5    105.92457   -254540.57    517.66779    6976.1308    16117.588 
  415800   -254645.18    102.03273   -254543.15    498.64784    6719.1851    16117.588 
  415900   -254648.15    100.07765   -254548.08     489.0931    6610.8694    16117.588 
  416000    -254647.4    99.782888   -254547.61    487.65257    6732.0206    16117.588 
  416100   -254646.69    101.82795   -254544.86    497.64708    6758.3311    16117.588 
  416200   -254645.25     103.5425   -254541.71    506.02633    6854.9828    16117.588 
  416300   -254643.56    102.93036   -254540.63    503.03471     6818.253    16117.588 
  416400   -254644.67    103.54369   -254541.13    506.03213    6819.4508    16117.588 
  416500   -254644.81    103.27516   -254541.53    504.71976    6906.2117    16117.588 
  416600   -254645.17    104.23526   -254540.93    509.41193    6944.0825    16117.588 
  416700   -254645.66    100.63301   -254545.03    491.80721    6754.3268    16117.588 
  416800   -254647.92    100.88134   -254547.04    493.02083    6643.5694    16117.588 
  416900   -254649.28    104.21751   -254545.06    509.32519    6889.5296    16117.588 
  417000   -254644.06     105.1623    -254538.9    513.94248    6928.4483    16117.588 
  417100   -254643.66     104.3633    -254539.3    510.03767    6874.8793    16117.588 
  417200   -254646.64    103.90242   -254542.73    507.78527    6885.9799    16117.588 
  417300   -254645.55    101.26295   -254544.29    494.88583    6790.4607    16117.588 
  417400   -254646.16    102.64544   -254543.51    501.64227     6878.545    16117.588 
  417500   -254644.63    101.44566   -254543.18    495.77875    6681.2674    16117.588 
  417600    -254644.7    101.94995   -254542.75    498.24328    6738.7684    16117.588 
  417700   -254643.35    100.84339   -254542.51     492.8354    6768.2813    16117.588 
  417800   -254642.93    102.48007   -254540.45    500.83404    6814.6738    16117.588 
  417900   -254644.95    104.04238   -254540.91    508.46931     6850.989    16117.588 
  418000   -254647.75    101.48716   -254546.27    495.98155    6750.6711    16117.588 
  418100   -254648.64    101.17002   -254547.47    494.43165    6663.0263    16117.588 
  418200   -254646.33    99.902866   -254546.43    488.23892    6577.3044    16117.588 
  418300   -254646.21    104.04294   -254542.17    508.47202    6846.7017    16117.588 
  418400   -254644.67    103.10204   -254541.57    503.87374    6883.7401    16117.588 
  418500   -254644.38    100.88673   -254543.49    493.04721    6708.7252    16117.588 
  418600   -254646.24    100.50105   -254545.74    491.16234    6611.4429    16117.588 
  418700   -254644.02    97.497808   -254546.52    476.48507    6414.0225    16117.588 
  418800   -254645.06    104.04955   -254541.01    508.50434    6849.2677    16117.588 
  418900   -254647.12    106.99339   -254540.13    522.89129    7067.8423    16117.588 
  419000   -254645.11    101.39276   -254543.71    495.52022    6725.3461    16117.588 
  419100   -254644.44    100.02257   -254544.42    488.82394    6750.7315    16117.588 
  419200   -254643.73    100.48694   -254543.24    491.09338     6663.867    16117.588 
  419300   -254641.56    104.78084   -254536.77    512.07824    6987.5015    16117.588 
  419400   -254639.21    102.82951   -254536.38    502.54183    6788.6028    16117.588 
  419500   -254641.46    101.66068    -254539.8    496.82959    6716.3949    16117.588 
  419600   -254645.69    104.30485   -254541.38    509.75202    6908.3799    16117.588 
  419700   -254642.62    100.49711   -254542.12    491.14309    6745.4146    16117.588 
  419800   -254642.99    103.13351   -254539.86    504.02752    6788.7236    16117.588 
  419900   -254644.02    107.81865    -254536.2    526.92445     7148.957    16117.588 
  420000   -254646.18    106.08321   -254540.09    518.44311    6986.7041    16117.588 
  420100   -254645.46    101.43747   -254544.02    495.73874    6750.3723    16117.588 
  420200   -254648.64    104.61527   -254544.02    511.26906    6971.1251    16117.588 
  420300   -254648.24    103.26631   -254544.97    504.67652    6799.4389    16117.588 
  420400   -254649.26    100.49591   -254548.77    491.13722    6615.4021    16117.588 
  420500      -254649    99.887928   -254549.11    488.16591     6574.814    16117.588 
  420600   -254644.87    101.42089   -254543.45    495.65769    6677.5884    16117.588 
  420700   -254644.34    102.31093   -254542.03    500.00746    6735.4734    16117.588 
  420800   -254643.42    99.945839   -254543.47    488.44893    6579.1931    16117.588 
  420900   -254644.72    101.69087   -254543.03    496.97711    6821.3283    16117.588 
  421000   -254642.97    103.87585   -254539.09    507.65544    6865.5264    16117.588 
  421100   -254642.48    106.44045   -254536.04    520.18899    7103.3056    16117.588 
  421200   -254642.36    103.39762   -254538.96    505.31825    6806.1007    16117.588 
  421300   -254642.84    101.24518   -254541.59    494.79897    6707.4629    16117.588 
  421400      -254645    103.40336    -254541.6    505.34631    6808.0305    16117.588 
  421500   -254644.72     102.7334   -254541.99     502.0721     6760.685    16117.588 
  421600   -254642.59     100.4384   -254542.15    490.85617    6610.2946    16117.588 
  421700   -254645.77    104.50366   -254541.27    510.72362    7034.8929    16117.588 
  421800    -254643.5    102.47825   -254541.02    500.82515      6844.14    16117.588 
  421900   -254645.34    101.82654   -254543.51    497.64016    6744.8913    16117.588 
  422000   -254645.58    99.527034   -254546.05    486.40217    6590.1437    16117.588 
  422100   -254646.69    102.17917   -254544.51    499.36354    6724.9565    16117.588 
  422200   -254644.02    105.40442   -254538.62    515.12578    6974.7933    16117.588 
  422300   -254641.98    103.92022   -254538.06    507.87228    6845.1312    16117.588 
  422400   -254641.57    100.25592   -254541.32    489.96434    6672.9352    16117.588 
  422500   -254645.02    100.72148    -254544.3    492.23957    6631.1765    16117.588 
  422600   -254648.72    103.69059   -254545.03    506.75004    6876.1739    16117.588 
  422700   -254646.18    101.24078   -254544.94     494.7775    6668.0717    16117.588 
  422800   -254647.63    104.21907   -254543.41    509.33282    6866.2278    16117.588 
  422900   -254642.78    103.08902   -254539.69    503.81008    6789.6138    16117.588 
  423000    -254644.2    104.95414   -254539.25    512.92519    6915.4023    16117.588 
  423100   -254643.67    100.03166   -254543.64    488.86835    6663.2273    16117.588 
  423200    -254645.7     97.06843   -254548.63    474.38664    6391.1503    16117.588 
  423300   -254648.48    102.19795   -254546.29    499.45533    6726.5981    16117.588 
  423400   -254646.65    103.36254   -254543.28    505.14683    6929.1304    16117.588 
  423500   -254646.79    105.28758    -254541.5    514.55473    6964.6394    16117.588 
  423600   -254648.54     102.8593   -254545.69    502.68739    6876.9268    16117.588 
  423700   -254650.66    103.46075    -254547.2    505.62679    6814.1069    16117.588 
  423800   -254648.48     101.8988   -254546.58    497.99333    6708.5821    16117.588 
  423900   -254645.83     102.2537   -254543.58    499.72776     6733.452    16117.588 
  424000   -254642.98    100.94167   -254542.04    493.31568    6668.6012    16117.588 
  424100   -254643.64    102.21272   -254541.42    499.52749    6768.0766    16117.588 
  424200   -254644.17    100.59527   -254543.57    491.62281    6625.1987    16117.588 
  424300    -254645.7    100.04834   -254545.65    488.94988    6621.8148    16117.588 
  424400   -254645.68    102.87508    -254542.8    502.76454    6867.4973    16117.588 
  424500   -254642.56    103.98564   -254538.57    508.19199    6848.7261    16117.588 
  424600   -254641.72    101.00108   -254540.72    493.60604    6649.1139    16117.588 
  424700   -254645.88    104.09234   -254541.79    508.71346    6880.8363    16117.588 
  424800   -254646.56    101.96874   -254544.59    498.33514    6714.2203    16117.588 
  424900   -254647.42    99.024248    -254548.4    483.94499    6547.0466    16117.588 
  425000   -254647.18    100.39416   -254546.79    490.63992     6607.535    16117.588 
  425100   -254643.69    102.88338   -254540.81    502.80507    6824.7796    16117.588 
  425200   -254641.93    102.58533   -254539.35     501.3485    6753.4476    16117.588 
  425300   -254643.02    103.70811   -254539.32    506.83567    6853.3282    16117.588 
  425400   -254645.28    104.77964    -254540.5    512.07238    6979.5185    16117.588 
  425500   -254646.34    100.17985   -254546.16    489.59258    6656.9837    16117.588 
  425600    -254645.6    98.740579   -254546.85    482.55866    6547.8119    16117.588 
  425700   -254647.41    103.21713    -254544.2    504.43618    6831.6388    16117.588 
  425800   -254644.48    101.54707   -254542.93    496.27439    6784.4264    16117.588 
  425900   -254645.94    102.90598   -254543.03    502.91555    6822.3433    16117.588 
  426000   -254646.89    102.25451   -254544.64    499.73171    6772.3899    16117.588 
  426100   -254650.02    105.07358   -254544.95    513.50891    6957.4228    16117.588 
  426200   -254648.44    103.08962   -254545.35      503.813    6822.4411    16117.588 
  426300   -254647.38    99.703432   -254547.68    487.26425    6564.1397    16117.588 
  426400   -254647.73    100.45389   -254547.27    490.93184    6614.4975    16117.588 
  426500   -254645.49    102.85512   -254542.63    502.66701    6797.4602    16117.588 
  426600   -254643.31    102.82185   -254540.49    502.50438    6764.9538    16117.588 
  426700   -254644.34     102.4138   -254541.92    500.51018    6724.9367    16117.588 
  426800   -254646.57    100.63813   -254545.93    491.83227    6620.8384    16117.588 
  426900   -254647.71    101.40223    -254546.3    495.56652    6696.1729    16117.588 
  427000   -254643.91    99.069458   -254544.84    484.16594    6621.5993    16117.588 
  427100   -254646.04     102.9041   -254543.14    502.90635    6773.9778    16117.588 
  427200    -254646.8    103.95834   -254542.84    508.05855    6843.0762    16117.588 
  427300   -254647.06    104.44031   -254542.62    510.41402    6865.4983    16117.588 
  427400   -254644.95    101.30682   -254543.64    495.10024    6665.9272    16117.588 
  427500   -254645.64    100.78251   -254544.86    492.53784    6659.8353    16117.588 
  427600   -254645.82    102.59148   -254543.23    501.37853    6784.8672    16117.588 
  427700   -254645.47    105.93947   -254539.53    517.74064    6976.3267    16117.588 
  427800   -254645.21    106.29096   -254538.92    519.45842    6996.8713    16117.588 
  427900   -254645.63    101.26432   -254544.37    494.89255     6663.887    16117.588 
  428000   -254646.23     100.3325    -254545.9    490.33862    6771.8954    16117.588 
  428100   -254649.75    106.12474   -254543.62    518.64607    6985.1843    16117.588 
  428200   -254647.09    104.77437   -254542.31    512.04661    6957.8398    16117.588 
  428300   -254645.28    102.11602   -254543.17    499.05492    6790.0506    16117.588 
  428400   -254645.83    99.078729   -254546.75    484.21125    6520.8896    16117.588 
  428500   -254648.52    101.10465   -254547.41    494.11221    6655.1213    16117.588 
  428600   -254647.85    105.08537   -254542.76    513.56653    6921.1619    16117.588 
  428700   -254641.37    101.01928   -254540.35      493.695    6650.0695    16117.588 
  428800   -254644.06    103.47676   -254540.59    505.70505     6812.439    16117.588 
  428900   -254642.72    100.17952   -254542.54    489.59097    6593.7792    16117.588 
  429000   -254644.85    101.10214   -254543.75    494.09993    6655.9863    16117.588 
  429100    -254646.7    102.82882   -254543.87    502.53847    6770.6361    16117.588 
  429200   -254648.37    103.33919   -254545.03    505.03269    6798.4922    16117.588 
  429300   -254646.47     103.0204   -254543.45    503.47473    6809.6764    16117.588 
  429400   -254641.95    102.69278   -254539.25    501.87363    6760.8458    16117.588 
  429500   -254644.94    107.44331    -254537.5    525.09008    7127.6246    16117.588 
  429600   -254645.69    103.97806   -254541.71    508.15493    6848.3027    16117.588 
  429700   -254646.72    102.22986   -254544.49    499.61127    6733.9767    16117.588 
  429800   -254647.04     101.0507   -254545.99    493.84854     6655.867    16117.588 
  429900   -254650.08    103.37979    -254546.7    505.23113     6811.016    16117.588 
  430000   -254648.19    101.37082   -254546.82      495.413    6677.3005    16117.588 
Loop time of 70483 on 1 procs for 430000 steps with 1584 atoms

Performance: 0.264 ns/day, 91.063 hours/ns, 6.101 timesteps/s
98.7% CPU use with 1 MPI tasks x 1 OpenMP threads

MPI task timing breakdown:
Section |  min time  |  avg time  |  max time  |%varavg| %total
---------------------------------------------------------------
Pair    | 67000      | 67000      | 67000      |   0.0 | 95.06
Kspace  | 224.75     | 224.75     | 224.75     |   0.0 |  0.32
Neigh   | 1037.9     | 1037.9     | 1037.9     |   0.0 |  1.47
Comm    | 11.305     | 11.305     | 11.305     |   0.0 |  0.02
Output  | 2196.4     | 2196.4     | 2196.4     |   0.0 |  3.12
Modify  | 11.198     | 11.198     | 11.198     |   0.0 |  0.02
Other   |            | 1.804      |            |       |  0.00

Nlocal:        1584.00 ave        1584 max        1584 min
Histogram: 1 0 0 0 0 0 0 0 0 0
Nghost:        10165.0 ave       10165 max       10165 min
Histogram: 1 0 0 0 0 0 0 0 0 0
Neighs:        818337.0 ave      818337 max      818337 min
Histogram: 1 0 0 0 0 0 0 0 0 0
FullNghs:  1.12558e+06 ave 1.12558e+06 max 1.12558e+06 min
Histogram: 1 0 0 0 0 0 0 0 0 0

Total # of neighbors = 1125580
Ave neighs/atom = 710.59343
Neighbor list builds = 43000
Dangerous builds not checked
Total wall time: 19:34:48
