LAMMPS (29 Sep 2021 - Update 2)
OMP_NUM_THREADS environment is not set. Defaulting to 1 thread. (src/comm.cpp:98)
  using 1 OpenMP thread(s) per MPI task
Reading data file ...
  orthogonal box = (0.0000000 0.0000000 0.0000000) to (25.260000 25.260000 25.260000)
  1 by 1 by 1 MPI processor grid
WARNING: Atom style in data file differs from currently defined atom style (src/read_data.cpp:516)
  reading atoms ...
  1584 atoms
  read_data CPU = 0.002 seconds
NequIP Coeff: type 1 is element O
NequIP Coeff: type 2 is element H
NequIP Coeff: type 3 is element Li
NequIP Coeff: type 4 is element Cl
Scanning dump file ...
Reading snapshot from dump file ...
  orthogonal box = (0.0000000 0.0000000 0.0000000) to (25.260000 25.260000 25.260000)
  1584 atoms before read
  1584 atoms in snapshot
  0 atoms purged
  1584 atoms replaced
  0 atoms trimmed
  0 atoms added
  1584 atoms after read
PPPM initialization ...
  using 12-bit tables for long-range coulomb (src/kspace.cpp:340)
  G vector (1/distance) = 0.22568151
  grid = 9 9 9
  stencil order = 5
  estimated absolute RMS force accuracy = 8.1621662e-06
  estimated relative force accuracy = 5.6683107e-07
  using double precision FFTW3
  3d grid and FFT values/proc = 2744 729
Neighbor list info ...
  update every 10 steps, delay 0 steps, check no
  max neighbors/atom: 2000, page size: 100000
  master list distance cutoff = 12
  ghost atom cutoff = 12
  binsize = 6, bins = 5 5 5
  3 neighbor lists, perpetual/occasional/extra = 3 0 0
  (1) pair nequip, perpetual
      attributes: full, newton off
      pair build: full/bin/atomonly
      stencil: full/bin/3d
      bin: standard
  (2) pair coul/long, perpetual, half/full from (1)
      attributes: half, newton off
      pair build: halffull/newtoff
      stencil: none
      bin: none
  (3) pair gauss/cut, perpetual, copy from (2)
      attributes: half, newton off
      pair build: copy
      stencil: none
      bin: none
Setting up Verlet run ...
  Unit style    : metal
  Current step  : 0
  Time step     : 0.0005
Per MPI rank memory allocation (min/avg/max) = 16.42 | 16.42 | 16.42 Mbytes
Step PotEng KinEng TotEng Temp Press Volume 
       0   -254646.91    61.385643   -254585.53          300    4048.4846    16117.588 
     100   -254669.63    75.911197   -254593.72    370.98836    4986.5254    16117.588 
     200   -254677.73    71.878263   -254605.85    351.27887    4721.1249    16117.588 
     300      -254681    64.557501   -254616.44     315.5013    4235.1946    16117.588 
     400   -254687.21    62.439788   -254624.77    305.15175    4094.9661    16117.588 
     500   -254692.07    61.287632   -254630.78    299.52101    4018.8201    16117.588 
     600   -254693.63     59.57725   -254634.05    291.16214    3905.4058    16117.588 
     700   -254694.78    59.686028    -254635.1    291.69375    3912.5095    16117.588 
     800    -254697.2    62.055109   -254635.14    303.27177    4130.7586    16117.588 
     900   -254696.13    61.853703   -254634.28    302.28747    4056.3382    16117.588 
    1000   -254696.35    61.882027   -254634.47     302.4259    4057.4414    16117.588 
    1100   -254697.39    61.702108   -254635.69    301.54661    4045.0881    16117.588 
    1200   -254700.06     60.95608    -254639.1    297.90067    3996.1941    16117.588 
    1300   -254702.84    61.402105   -254641.44    300.08045    4026.2686    16117.588 
    1400    -254702.3     59.84969   -254642.45    292.49359    3922.5207    16117.588 
    1500   -254702.52     60.16363   -254642.36    294.02786     3944.222    16117.588 
    1600   -254701.02    60.910794   -254640.11    297.67935    3993.1825    16117.588 
    1700   -254701.89    63.498632   -254638.39    310.32646    4234.8161    16117.588 
    1800   -254701.88    62.708728   -254639.17     306.4661    4112.4571    16117.588 
    1900   -254702.27     60.67434    -254641.6    296.52377    4003.6508    16117.588 
    2000    -254701.9    59.839034   -254642.06    292.44151    3921.2126    16117.588 
    2100   -254702.02    61.256331   -254640.77    299.36803    4016.0709    16117.588 
    2200   -254700.54    60.988218   -254639.55    298.05773    3997.6969    16117.588 
    2300   -254700.77     62.55628   -254638.21    305.72106    4165.8497    16117.588 
    2400    -254702.1    63.940836   -254638.16    312.48758    4193.4575    16117.588 
    2500   -254701.91    60.630455   -254641.28     296.3093    4005.7789    16117.588 
    2600   -254702.64    59.784135   -254642.86    292.17321    3917.8977    16117.588 
    2700   -254704.11     61.98874   -254642.12    302.94742    4064.0264    16117.588 
    2800   -254703.65     62.49781   -254641.15    305.43531    4098.4418    16117.588 
    2900   -254702.86    60.111784   -254642.75    293.77448    3940.7525    16117.588 
    3000   -254704.84    60.083949   -254644.75    293.63845    3990.7537    16117.588 
    3100   -254705.84    61.020346   -254644.82    298.21474    4022.7748    16117.588 
    3200   -254703.15    61.327728   -254641.83    299.71696    4020.4965    16117.588 
    3300   -254704.27    63.725582   -254640.54     311.4356    4275.6522    16117.588 
    3400   -254705.01    62.801329   -254642.21    306.91865    4119.4814    16117.588 
    3500   -254706.19    61.751717   -254644.44    301.78906    4118.1769    16117.588 
    3600   -254705.09      59.9485   -254645.14    292.97649     3930.648    16117.588 
    3700   -254706.97    61.378407    -254645.6    299.96464    4048.3991    16117.588 
    3800   -254705.64    59.571373   -254646.07    291.13342    3973.6369    16117.588 
    3900   -254706.21    59.877863   -254646.33    292.63128    3989.2122    16117.588 
    4000   -254706.52    62.769469   -254643.76    306.76295    4117.9248    16117.588 
    4100   -254705.09    62.037046   -254643.05     303.1835    4069.4065    16117.588 
    4200    -254705.4    62.155188   -254643.24    303.76087    4078.0436    16117.588 
    4300   -254705.72    59.893631   -254645.83    292.70834    3928.2499    16117.588 
    4400   -254705.46    60.750718    -254644.7    296.89703    3984.3393    16117.588 
    4500   -254704.35    62.360833   -254641.99    304.76589     4091.351    16117.588 
    4600      -254703    61.073874   -254641.93    298.47634    4005.9284    16117.588 
    4700   -254703.52    61.074388   -254642.45    298.47885    4005.4131    16117.588 
    4800   -254704.61     61.74812   -254642.86    301.77147    4051.0577    16117.588 
    4900   -254707.01     61.86045   -254645.15    302.32045    4058.6686    16117.588 
    5000   -254706.99    60.483522    -254646.5    295.59121    4013.1466    16117.588 
    5100   -254705.51    60.266977   -254645.24    294.53293    3981.0446    16117.588 
    5200   -254703.67    61.874074   -254641.79    302.38703     4126.672    16117.588 
    5300   -254706.23    63.355984   -254642.88    309.62933    4159.0026    16117.588 
    5400    -254706.4    62.747372   -254643.65    306.65495    4148.1048    16117.588 
    5500   -254706.28     62.33611   -254643.95    304.64506    4090.2882    16117.588 
    5600   -254706.44    61.092872   -254645.35    298.56919    4008.3342    16117.588 
    5700   -254708.11    59.292412   -254648.82     289.7701    3888.3985    16117.588 
    5800   -254707.99    60.123154   -254647.86    293.83005    3944.2189    16117.588 
    5900   -254706.86    60.607927   -254646.25     296.1992    4025.1974    16117.588 
    6000   -254705.45    60.130166   -254645.32    293.86431    3965.9781    16117.588 
    6100   -254704.95    61.486866   -254643.47    300.49469    4153.3816    16117.588 
    6200   -254705.25    62.956682    -254642.3    307.67788    4155.2324    16117.588 
    6300   -254707.35    60.836015   -254646.51    297.31389    3990.2627    16117.588 
    6400   -254707.82    60.823865      -254647    297.25451    4038.7634    16117.588 
    6500    -254707.2    62.617091   -254644.58    306.01825    4108.7165    16117.588 
    6600   -254706.57    62.676985   -254643.89    306.31097    4150.3556    16117.588 
    6700   -254707.79    63.184594   -254644.61    308.79172    4146.1716    16117.588 
    6800   -254706.64    60.425149   -254646.22    295.30594    4031.7356    16117.588 
    6900   -254708.04    60.323227   -254647.71    294.80783    3956.5132    16117.588 
    7000   -254707.38    61.639841   -254645.74     301.2423    4094.9577    16117.588 
    7100   -254703.68    60.492107   -254643.19    295.63317    4001.3156    16117.588 
    7200   -254703.54    61.168785   -254642.37    298.94018    4012.4996    16117.588 
    7300   -254703.21     60.78469   -254642.43    297.06306     3987.588    16117.588 
    7400   -254703.94    60.800381   -254643.14    297.13975    3989.1224    16117.588 
    7500   -254704.89    58.865765   -254646.02    287.68502    3889.7121    16117.588 
    7600    -254706.7    59.596362    -254647.1    291.25554     3939.955    16117.588 
    7700   -254704.92    61.052217   -254643.87     298.3705    4034.1792    16117.588 
    7800   -254704.49    61.863522   -254642.63    302.33546    4058.7975    16117.588 
    7900   -254702.39     59.40538   -254642.99    290.32219    4121.4527    16117.588 
    8000   -254703.24    59.644342    -254643.6    291.49002    4062.1959    16117.588 
    8100   -254705.01    61.939111   -254643.07    302.70488    4064.2377    16117.588 
    8200   -254703.34    62.737107    -254640.6    306.60479    4117.1747    16117.588 
    8300   -254702.28    61.927847   -254640.35    302.64983    4063.2575    16117.588 
    8400   -254703.72    61.300941   -254642.42    299.58605    4152.6107    16117.588 
    8500    -254704.9    60.146955   -254644.75    293.94637    3969.6668    16117.588 
    8600   -254704.89    60.245588   -254644.64     294.4284    3953.0957    16117.588 
    8700   -254706.08    62.574824   -254643.51    305.81169    4131.3423    16117.588 
    8800   -254704.83    61.502958   -254643.33    300.57334    4036.7206    16117.588 
    8900   -254705.36    60.692312   -254644.67     296.6116    4008.0709    16117.588 
    9000   -254705.77    59.873884    -254645.9    292.61183    3928.0893    16117.588 
    9100   -254706.08    60.294698   -254645.78     294.6684    3956.4022    16117.588 
    9200   -254704.94    61.959832   -254642.98    302.80614    4064.0938    16117.588 
    9300   -254704.82    62.183583   -254642.64    303.89964    4079.9612    16117.588 
    9400   -254705.47    61.850176   -254643.62    302.27024    4086.7419    16117.588 
    9500   -254705.26     60.51387   -254644.75    295.73953    3970.5102    16117.588 
    9600   -254706.48     60.06321   -254646.42    293.53709    3939.6704    16117.588 
    9700   -254708.68    59.513204   -254649.17    290.84914    3903.7895    16117.588 
    9800   -254708.08    60.063031   -254648.01    293.53622    3964.1048    16117.588 
    9900   -254705.54    60.142979   -254645.39    293.92693    3945.2095    16117.588 
   10000   -254704.77    61.202429   -254643.57    299.10461    4014.9192    16117.588 
   10100   -254704.51    61.805258   -254642.71    302.05071    4055.7449    16117.588 
   10200   -254704.55     61.63067   -254642.92    301.19748    4092.0727    16117.588 
   10300   -254707.21    61.607061   -254645.61     301.0821    4043.2938    16117.588 
   10400   -254707.12    60.204049   -254646.91    294.22539    3985.2753    16117.588 
   10500   -254705.72    60.226585   -254645.49    294.33552    3987.0126    16117.588 
   10600   -254706.79    63.429458   -254643.36     309.9884    4164.0216    16117.588 
   10700   -254708.28    63.189617   -254645.09    308.81627    4170.6309    16117.588 
   10800   -254707.44    61.153902   -254646.29    298.86745    4013.5744    16117.588 
   10900    -254704.9    59.862263   -254645.04    292.55503    3927.1236    16117.588 
   11000   -254705.23    62.561857   -254642.66    305.74832    4104.3031    16117.588 
   11100    -254703.2    60.870567   -254642.33    297.48275    3993.3038    16117.588 
   11200   -254704.91    61.179016   -254643.73    298.99019    4046.0466    16117.588 
   11300   -254707.29    61.023702   -254646.27    298.23115    3999.5069    16117.588 
   11400   -254710.87    63.430787   -254647.44     309.9949    4160.9832    16117.588 
   11500   -254708.02     60.34928   -254647.67    294.93516    3983.5802    16117.588 
   11600   -254707.99    61.602112   -254646.39    301.05791    4041.4679    16117.588 
   11700   -254706.71    62.642908   -254644.06    306.14442    4110.3622    16117.588 
   11800   -254705.21    63.080151   -254642.13    308.28129    4140.3682    16117.588 
   11900   -254703.67    61.073435    -254642.6     298.4742    4033.5765    16117.588 
   12000   -254707.51    60.634919   -254646.88    296.33111    4011.6458    16117.588 
   12100   -254706.78    59.694994   -254647.09    291.73757    3915.1058    16117.588 
   12200   -254706.72    60.850679   -254645.87    297.38556    4023.1819    16117.588 
   12300   -254705.31    61.833488   -254643.48    302.18868    4056.8891    16117.588 
   12400   -254703.67    61.032834   -254642.63    298.27578    4003.4809    16117.588 
   12500   -254704.35    61.069532   -254643.28    298.45512    4006.3977    16117.588 
   12600   -254705.74    59.540258    -254646.2    290.98135    3903.7466    16117.588 
   12700    -254706.4    59.549821   -254646.85    291.02809    3904.7098    16117.588 
   12800      -254707    61.675569   -254645.32    301.41691    4077.5217    16117.588 
   12900   -254705.48    61.354421   -254644.12    299.84742    4023.6716    16117.588 
   13000   -254705.33    62.291413   -254643.04    304.42662    4085.9515    16117.588 
   13100   -254705.45    63.001648   -254642.44    307.89764    4132.6535    16117.588 
   13200   -254704.85    61.915799   -254642.94    302.59094    4061.6394    16117.588 
   13300   -254705.94    60.178503   -254645.76    294.10054    3946.2729    16117.588 
   13400   -254706.46     59.68636   -254646.77    291.69537    3944.3311    16117.588 
   13500   -254707.01    60.621717   -254646.39    296.26659    3976.4293    16117.588 
   13600   -254705.56    62.105587   -254643.45    303.51846    4074.6203    16117.588 
   13700   -254704.09    62.053624   -254642.04    303.26451    4070.9782    16117.588 
   13800    -254706.7    63.959496   -254642.74    312.57877    4196.8254    16117.588 
   13900   -254706.24    61.612217   -254644.63     301.1073    4040.5532    16117.588 
   14000   -254706.18    61.389298   -254644.79    300.01786    4026.4552    16117.588 
   14100   -254705.98    61.377913    -254644.6    299.96222    4024.6567    16117.588 
   14200   -254704.76    60.302158   -254644.46    294.70486    3980.8094    16117.588 
   14300   -254705.37    61.991996   -254643.38    302.96333    4065.5303    16117.588 
   14400   -254703.23    62.400956   -254640.83    304.96198     4149.005    16117.588 
   14500   -254703.64    62.125784   -254641.51    303.61717     4074.554    16117.588 
   14600   -254704.79    60.889118    -254643.9    297.57342    4022.1418    16117.588 
   14700   -254704.39    59.768255   -254644.62     292.0956    3941.4507    16117.588 
   14800    -254706.8    62.293937   -254644.51    304.43896    4086.7395    16117.588 
   14900   -254707.21    61.925055   -254645.28    302.63618    4088.5941    16117.588 
   15000   -254705.45    59.268735   -254646.19    289.65438     3886.219    16117.588 
   15100   -254703.73    59.522099    -254644.2    290.89261    3902.3437    16117.588 
   15200   -254704.09    62.869402   -254641.22    307.25133    4123.6258    16117.588 
   15300      -254706    64.253445   -254641.75    314.01534    4216.1409    16117.588 
   15400   -254706.57    62.678076    -254643.9     306.3163      4111.74    16117.588 
   15500   -254706.58    60.758899   -254645.83    296.93702    3983.9769    16117.588 
   15600   -254708.38    62.813679   -254645.56    306.97901    4171.9691    16117.588 
   15700   -254706.08     60.43913   -254645.64    295.37426     3962.049    16117.588 
   15800   -254705.55    60.389509   -254645.16    295.13176    3958.9837    16117.588 
   15900   -254705.04    60.072023   -254644.97    293.58016    3938.1401    16117.588 
   16000   -254706.82    60.260812   -254646.56     294.5028    3951.3463    16117.588 
   16100    -254708.9    60.445598   -254648.46    295.40587    3962.6519    16117.588 
   16200   -254709.22    60.288472   -254648.93    294.63798    3954.3126    16117.588 
   16300    -254707.6    59.946299   -254647.65    292.96573    3931.0822    16117.588 
   16400   -254706.96     61.85225   -254645.11    302.28037    4057.5223    16117.588 
   16500   -254706.96     62.17475   -254644.79    303.85647    4079.8648    16117.588 
   16600   -254707.69    61.555017   -254646.13    300.82776     4037.917    16117.588 
   16700   -254709.06    59.374463   -254649.69    290.17109    3892.2143    16117.588 
   16800   -254708.01    58.574289   -254649.43    286.26053    3840.0418    16117.588 
   16900   -254708.57    60.897353   -254647.68    297.61366    3994.5911    16117.588 
   17000   -254708.55    62.733327   -254645.82    306.58631    4115.8449    16117.588 
   17100   -254706.21    60.526657   -254645.68    295.80202    3970.0429    16117.588 
   17200   -254705.22    61.514126   -254643.71    300.62791     4035.391    16117.588 
   17300   -254705.12    62.170869   -254642.95    303.83751    4104.3381    16117.588 
   17400   -254705.66     61.70852   -254643.95    301.57795     4076.237    16117.588 
   17500    -254706.4    61.570676   -254644.83    300.90428     4038.726    16117.588 
   17600   -254708.03    61.927484    -254646.1    302.64805    4061.6686    16117.588 
   17700   -254708.98    60.593415   -254648.39    296.12827    3973.5883    16117.588 
   17800   -254709.85    60.873197   -254648.98    297.49561    4019.6069    16117.588 
   17900   -254709.51    61.792874   -254647.72    301.99019    4111.9266    16117.588 
   18000   -254708.18    62.095613   -254646.09    303.46972    4071.9955    16117.588 
   18100   -254707.47    61.777365   -254645.69     301.9144    4080.1963    16117.588 
   18200   -254706.77    61.530915   -254645.24    300.70997    4034.1362    16117.588 
   18300   -254705.97    61.381218   -254644.59    299.97838    4025.0822    16117.588 
   18400   -254706.53    62.675077   -254643.86    306.30164    4110.2432    16117.588 
   18500   -254708.86    63.063153    -254645.8    308.19822    4136.7947    16117.588 
   18600   -254707.62    59.507084   -254648.11    290.81923    3901.5104    16117.588 
   18700   -254708.72    61.398819   -254647.32    300.06439     4026.877    16117.588 
   18800   -254706.58    60.723653   -254645.85    296.76477    3982.0852    16117.588 
   18900      -254706     63.44709   -254642.55    310.07457    4162.5764    16117.588 
   19000   -254706.58     63.52512   -254643.06    310.45592    4167.4583    16117.588 
   19100   -254708.12    61.720268    -254646.4    301.63536    4112.1064    16117.588 
   19200    -254709.4    62.416291   -254646.99    305.03692     4116.617    16117.588 
   19300    -254709.8    61.894299    -254647.9    302.48587    4058.2534    16117.588 
   19400   -254709.18    60.316599   -254648.86    294.77544    3955.3593    16117.588 
   19500   -254706.85     58.83509   -254648.02     287.5351    3857.0187    16117.588 
   19600   -254705.95    61.331226   -254644.62    299.73406    4115.1268    16117.588 
   19700    -254706.4    61.925044   -254644.47    302.63612    4061.4118    16117.588 
   19800    -254708.6     62.42864   -254646.17    305.09727    4095.5951    16117.588 
   19900   -254708.54    60.698327   -254647.84    296.64099    4019.6362    16117.588 
   20000   -254711.68    63.866565   -254647.82     312.1246    4238.2423    16117.588 
   20100   -254709.04    62.434706    -254646.6    305.12692    4095.9241    16117.588 
   20200   -254704.93    61.453353   -254643.48    300.33091    4030.7887    16117.588 
   20300   -254705.56    62.288095   -254643.27    304.41041    4120.7137    16117.588 
   20400   -254707.06    61.228545   -254645.83    299.23224    4016.4644    16117.588 
   20500   -254708.58    61.006138   -254647.57    298.14531    4052.0809    16117.588 
   20600   -254708.91    61.798323   -254647.11    302.01683     4053.928    16117.588 
   20700   -254705.88    59.678563    -254646.2    291.65727    3913.8758    16117.588 
   20800   -254704.22    60.492084   -254643.73    295.63306    4081.8246    16117.588 
   20900   -254704.75    62.039573   -254642.71    303.19585     4069.585    16117.588 
   21000   -254704.57     61.53577   -254643.04    300.73369     4036.234    16117.588 
   21100   -254706.73    62.998443   -254643.74    307.88197    4184.9634    16117.588 
   21200   -254708.35     62.50575   -254645.85    305.47412    4100.6948    16117.588 
   21300   -254710.36    61.683156   -254648.67    301.45399    4095.7036    16117.588 
   21400   -254708.74    59.591498   -254649.14    291.23177    3938.4596    16117.588 
   21500   -254707.27    59.028802   -254648.24     288.4818    3907.6677    16117.588 
   21600   -254707.84    62.156078   -254645.68    303.76522    4111.7414    16117.588 
   21700    -254706.9    61.928535   -254644.97    302.65319     4062.975    16117.588 
   21800   -254707.45    62.084025   -254645.37    303.41309    4073.2532    16117.588 
   21900   -254707.46    62.237748   -254645.22    304.16435    4084.0301    16117.588 
   22000   -254708.42    61.301188   -254647.12    299.58726    4022.3242    16117.588 
   22100    -254708.9    60.035616   -254648.86    293.40224    3938.8666    16117.588 
   22200   -254707.59    59.312767   -254648.28    289.86957    3937.9743    16117.588 
   22300    -254710.2    64.846228   -254645.36    316.91235    4258.2675    16117.588 
   22400    -254706.6    61.382667   -254645.22    299.98545    4027.3467    16117.588 
   22500   -254706.43    60.229934   -254646.21    294.35189    3950.4464    16117.588 
   22600    -254707.6    60.649828   -254646.95    296.40397     4018.012    16117.588 
   22700   -254708.73    61.415579   -254647.31     300.1463    4029.1852    16117.588 
   22800   -254707.87    62.511985   -254645.36    305.50459    4101.4274    16117.588 
   22900   -254704.39    60.914237   -254643.48    297.69617    3995.0609    16117.588 
   23000    -254705.8      63.7308   -254642.07     311.4611    4220.9086    16117.588 
   23100   -254706.44    62.034764    -254644.4    303.17235    4130.2668    16117.588 
   23200   -254708.56    62.249842   -254646.31    304.22346    4117.0713    16117.588 
   23300   -254707.57    60.917175   -254646.66    297.71053    3996.6821    16117.588 
   23400   -254708.55     61.66674   -254646.88    301.37376    4046.2435    16117.588 
   23500   -254710.16    63.016595   -254647.14    307.97069     4136.134    16117.588 
   23600   -254710.21    61.672236   -254648.54    301.40062    4047.3629    16117.588 
   23700   -254711.44     61.33497   -254650.11    299.75236    4024.1422    16117.588 
   23800   -254709.26    61.178691   -254648.08     298.9886      4014.88    16117.588 
   23900   -254707.48    62.058407   -254645.43    303.28789    4072.4232    16117.588 
   24000   -254706.35    60.918882   -254645.43    297.71888    3996.9864    16117.588 
   24100   -254706.36    59.033646   -254647.33    288.50547    3870.6218    16117.588 
   24200   -254709.23    60.534906    -254648.7    295.84233    3971.8537    16117.588 
   24300   -254708.37    59.207242   -254649.16    289.35386    3883.2583    16117.588 
   24400   -254706.32     61.27988   -254645.04    299.48312    4044.9308    16117.588 
   24500   -254705.13    61.444734   -254643.69    300.28879    4032.2791    16117.588 
   24600   -254705.42    60.854855   -254644.56    297.40597    3992.8324    16117.588 
   24700   -254707.12    60.994398   -254646.13    298.08793    4003.6405    16117.588 
   24800   -254708.71    60.604572    -254648.1     296.1828    3977.5005    16117.588 
   24900   -254705.98    59.718265   -254646.26     291.8513    3917.5242    16117.588 
   25000   -254705.83    62.557446   -254643.27    305.72676     4107.094    16117.588 
   25100   -254706.26    62.930922   -254643.33    307.55199    4130.7211    16117.588 
   25200   -254706.02    61.311505    -254644.7    299.63768    4023.6373    16117.588 
   25300   -254706.74    60.821233   -254645.92    297.24165    4020.9684    16117.588 
   25400   -254707.28    60.110349   -254647.17    293.76747    3943.9511    16117.588 
   25500   -254705.63    61.596468   -254644.03    301.03033    4042.7864    16117.588 
   25600   -254707.13    64.558295   -254642.57    315.50518    4239.6408    16117.588 
   25700   -254706.14    61.527776   -254644.61    300.69462    4038.8823    16117.588 
   25800   -254708.43     61.93643    -254646.5    302.69177    4066.2017    16117.588 
   25900   -254706.69    59.762925   -254646.93    292.06956     3974.432    16117.588 
   26000   -254709.19    61.979636   -254647.21    302.90292    4068.5314    16117.588 
   26100   -254708.27    60.267229   -254648.01    294.53416    3991.7786    16117.588 
   26200   -254709.71    62.469212   -254647.24    305.29555    4100.4292    16117.588 
   26300   -254707.73    61.968009   -254645.77     302.8461    4068.3716    16117.588 
   26400   -254705.62    60.940089   -254644.68    297.82252    3999.6224    16117.588 
   26500   -254705.43     62.58442   -254642.85    305.85859    4108.8178    16117.588 
   26600    -254704.6    63.202105    -254641.4     308.8773    4149.2658    16117.588 
   26700   -254708.69    63.927258   -254644.76    312.42122    4225.4351    16117.588 
   26800   -254709.35    61.908222   -254647.44    302.55392    4063.3688    16117.588 
   26900   -254709.81    61.963735   -254647.84    302.82522    4067.2489    16117.588 
   27000   -254707.28    60.005507   -254647.28    293.25509    3938.0065    16117.588 
   27100   -254708.12    63.615962   -254644.51    310.89987    4176.7932    16117.588 
   27200   -254706.51    62.694123   -254643.81    306.39472    4139.8057    16117.588 
   27300   -254707.63     62.85765   -254644.77     307.1939    4127.0862    16117.588 
   27400   -254706.95    59.052855    -254647.9    288.59935    3874.9904    16117.588 
   27500   -254708.22    59.523313   -254648.69    290.89854    3905.8403    16117.588 
   27600   -254706.26    59.324941   -254646.94    289.92907    3921.1357    16117.588 
   27700   -254706.28    60.377608    -254645.9     295.0736    3962.5028    16117.588 
   27800   -254706.88    61.698138   -254645.18     301.5272    4080.8622    16117.588 
   27900   -254708.02    61.329807   -254646.69    299.72712    4055.7207    16117.588 
   28000   -254709.79    59.772869   -254650.01    292.11815    3953.1364    16117.588 
   28100   -254708.19    59.822835   -254648.36    292.36235     3949.292    16117.588 
   28200   -254706.12    59.718292    -254646.4    291.85143    3917.6903    16117.588 
   28300    -254706.2    60.643605   -254645.56    296.37356    3978.2908    16117.588 
   28400   -254705.42    60.063046   -254645.35    293.53629    3941.0027    16117.588 
   28500   -254708.05    61.939087   -254646.11    302.70476    4064.8656    16117.588 
   28600   -254708.07    59.806206   -254648.27    292.28108     3923.778    16117.588 
   28700   -254708.82    61.243696   -254647.58    299.30629    4041.9023    16117.588 
   28800   -254707.84    62.735235    -254645.1    306.59564     4117.144    16117.588 
   28900   -254706.94    62.737375    -254644.2     306.6061    4117.3072    16117.588 
   29000   -254707.71    62.392283   -254645.31    304.91959    4094.6056    16117.588 
   29100    -254708.2    59.274412   -254648.92    289.68213    3915.4571    16117.588 
   29200    -254708.7    59.552948   -254649.15    291.04337     3975.309    16117.588 
   29300      -254707      60.6303   -254646.37    296.30853    4012.6225    16117.588 
   29400   -254706.43    61.763991   -254644.66    301.84904     4051.259    16117.588 
   29500   -254705.61    62.021875   -254643.59    303.10935    4142.1937    16117.588 
   29600   -254706.08    61.797591   -254644.28    302.01325    4110.7692    16117.588 
   29700    -254706.8    61.735107   -254645.07    301.70788    4050.8665    16117.588 
   29800   -254708.59    62.314731   -254646.28    304.54058    4089.3232    16117.588 
   29900   -254706.18    60.315844   -254645.86    294.77175    4000.5972    16117.588 
   30000   -254705.39    61.690809    -254643.7    301.49139    4201.3053    16117.588 
   30100   -254705.45    63.103896   -254642.34    308.39734    4142.6465    16117.588 
   30200   -254703.65    60.824108   -254642.82     297.2557    3991.6616    16117.588 
   30300   -254705.78    59.537473   -254646.25    290.96774    3905.9425    16117.588 
   30400   -254707.54    61.120447   -254646.42    298.70395    4010.9397    16117.588 
   30500   -254705.07    60.334727   -254644.73    294.86403    3958.6681    16117.588 
   30600   -254705.44     62.33039   -254643.11    304.61711    4091.7231    16117.588 
   30700   -254705.71    63.181921   -254642.53    308.77865    4184.1889    16117.588 
   30800    -254705.5     61.96935   -254643.53    302.85265     4099.507    16117.588 
   30900   -254706.15    63.155747   -254642.99    308.65074    4172.4477    16117.588 
   31000   -254705.24    61.784861   -254643.46    301.95103    4055.9928    16117.588 
   31100   -254704.71    59.200259   -254645.51    289.31973    4024.1208    16117.588 
   31200   -254704.11    59.004187    -254645.1     288.3615    3871.8092    16117.588 
   31300   -254704.78    62.571591   -254642.21    305.79589    4105.3307    16117.588 
   31400   -254704.07     62.18327   -254641.89    303.89811      4104.74    16117.588 
   31500   -254705.16    60.988427   -254644.17    298.05875    4002.6854    16117.588 
   31600   -254705.13    60.504946   -254644.62    295.69591    3970.6644    16117.588 
   31700   -254704.91    60.861158   -254644.05    297.43677    4206.4738    16117.588 
   31800   -254706.14    61.734059   -254644.41    301.70276     4052.222    16117.588 
   31900   -254706.61    60.978642   -254645.63    298.01093    4001.5617    16117.588 
   32000   -254703.78    58.071821   -254645.71     283.8049    3878.6695    16117.588 
   32100   -254704.29    61.169648   -254643.12     298.9444    4060.5484    16117.588 
   32200    -254706.2    64.042039   -254642.16    312.98217    4204.4156    16117.588 
   32300   -254705.34    62.451843   -254642.89    305.21066    4099.2921    16117.588 
   32400   -254706.23    60.655657   -254645.57    296.43246    3980.0799    16117.588 
   32500   -254705.98    59.998003   -254645.98    293.21841    3936.4727    16117.588 
   32600   -254707.36    61.806814   -254645.56    302.05832    4056.6671    16117.588 
   32700    -254705.9    60.718776   -254645.18    296.74093    3984.4993    16117.588 
   32800   -254704.04    60.473218   -254643.57    295.54085    3967.4621    16117.588 
   32900   -254703.64    63.168223   -254640.47    308.71171    4146.1539    16117.588 
   33000   -254700.98     60.05786   -254640.92    293.51094    3939.2643    16117.588 
   33100   -254704.31    62.442423   -254641.87    305.16463    4098.3622    16117.588 
   33200   -254705.37    61.480386   -254643.89    300.46302    4034.4285    16117.588 
   33300   -254705.74    59.656801   -254646.08    291.55092    4012.2145    16117.588 
   33400   -254707.44     61.93598   -254645.51    302.68957    4065.1722    16117.588 
   33500   -254707.45    62.503938   -254644.95    305.46526    4102.5079    16117.588 
   33600    -254705.6    60.395352    -254645.2    295.16031    4049.1724    16117.588 
   33700   -254705.68    60.673502   -254645.01    296.51967    3982.2973    16117.588 
   33800   -254706.68    62.035021   -254644.65     303.1736    4071.8816    16117.588 
   33900   -254704.91    60.690845   -254644.22    296.60443    3983.5452    16117.588 
   34000   -254705.73    62.387498   -254643.34     304.8962    4095.6498    16117.588 
   34100   -254705.21    63.142301   -254642.06    308.58503    4145.3137    16117.588 
   34200   -254705.47    64.297863   -254641.17    314.23242    4277.5511    16117.588 
   34300    -254706.4    61.925388   -254644.47    302.63781    4064.0118    16117.588 
   34400   -254706.98    60.624651   -254646.36    296.28093    3978.8282    16117.588 
   34500    -254706.5     59.87867   -254646.62    292.63522    3929.6094    16117.588 
   34600   -254706.93    60.517577   -254646.41    295.75764    4047.7081    16117.588 
   34700   -254706.21    61.081959   -254645.13    298.51586    4038.9237    16117.588 
   34800   -254707.89    64.319264   -254643.57      314.337    4224.5708    16117.588 
   34900   -254707.27    61.271189      -254646    299.44065    4022.5126    16117.588 
   35000   -254709.44    61.358654   -254648.08     299.8681     4027.413    16117.588 
   35100   -254708.26     59.80113   -254648.46    292.25627    3953.1123    16117.588 
   35200   -254708.48    61.987649   -254646.49    302.94209    4069.8838    16117.588 
   35300   -254706.58    61.325224   -254645.25    299.70472    4024.9169    16117.588 
   35400   -254705.69    60.717041   -254644.97    296.73245    4047.1836    16117.588 
   35500   -254706.18    60.783845    -254645.4    297.05893    3990.4858    16117.588 
   35600   -254704.89    59.711972   -254645.18    291.82054    3918.5244    16117.588 
   35700   -254706.72    61.335424   -254645.39    299.75457    4025.9565    16117.588 
   35800   -254708.15    61.007227   -254647.15    298.15063    4004.8908    16117.588 
   35900   -254707.54    59.115102   -254648.42    288.90356    3879.1342    16117.588 
   36000   -254706.52    60.530807   -254645.99     295.8223    3972.3456    16117.588 
   36100      -254705    60.815393   -254644.18    297.21311    3990.6778    16117.588 
   36200   -254704.19    61.034809   -254643.15    298.28543    4032.0664    16117.588 
   36300   -254706.93    63.146676   -254643.78    308.60641    4218.8746    16117.588 
   36400   -254706.56    59.710301   -254646.84    291.81238    3997.6686    16117.588 
   36500   -254707.35    59.381708   -254647.96     290.2065     3895.868    16117.588 
   36600   -254706.35    59.961162   -254646.39    293.03837    4019.4941    16117.588 
   36700   -254706.81    62.342444   -254644.47    304.67602    4130.4545    16117.588 
   36800    -254704.4    59.985668   -254644.42    293.15813    3969.3651    16117.588 
   36900   -254706.81    62.080071   -254644.73    303.39377    4076.2224    16117.588 
   37000   -254705.14    60.694057   -254644.44    296.62013    4016.5407    16117.588 
   37100   -254703.99    62.336934   -254641.65    304.64909    4161.9839    16117.588 
   37200   -254704.11    63.463961   -254640.64    310.15702    4167.8363    16117.588 
   37300   -254702.01     59.36251   -254642.64    290.11267    3895.5627    16117.588 
   37400   -254705.12    60.836667   -254644.28    297.31708    3993.1151    16117.588 
   37500   -254706.01    61.316235    -254644.7     299.6608    4025.3205    16117.588 
   37600   -254705.38    61.695803   -254643.68     301.5158    4050.6197    16117.588 
   37700   -254706.33    63.502174   -254642.83    310.34377    4170.3149    16117.588 
   37800   -254704.72    60.248137   -254644.47    294.44085    4003.2447    16117.588 
   37900   -254705.67    60.303749   -254645.37    294.71264    3958.4322    16117.588 
   38000   -254706.36    62.393924   -254643.97    304.92761    4127.5886    16117.588 
   38100   -254703.35    61.711691   -254641.64    301.59344    4051.9565    16117.588 
   38200   -254703.57    63.603164   -254639.97    310.83733    4176.5333    16117.588 
   38300   -254703.25    61.727957   -254641.52    301.67294    4094.1593    16117.588 
   38400   -254707.06    62.125504   -254644.94     303.6158    4131.8132    16117.588 
   38500   -254706.51    61.459687   -254645.05    300.36186     4034.236    16117.588 
   38600   -254706.14    61.876572   -254644.26    302.39924    4118.5784    16117.588 
   38700   -254705.53    62.903441   -254642.63    307.41769    4130.8664    16117.588 
   38800   -254704.68    63.544628   -254641.13    310.55126    4173.2352    16117.588 
   38900      -254706    61.064475   -254644.94    298.43041    4008.7457    16117.588 
   39000   -254705.11    60.047163   -254645.07    293.45867    3966.4165    16117.588 
   39100   -254704.94      61.8139   -254643.12    302.09295     4058.796    16117.588 
   39200   -254703.42    61.581261   -254641.84    300.95601    4204.9573    16117.588 
   39300   -254705.07    62.766214   -254642.31    306.74704    4171.3331    16117.588 
   39400   -254704.83    61.372343   -254643.46      299.935     4107.615    16117.588 
   39500   -254707.52    61.940574   -254645.58    302.71203    4065.9428    16117.588 
   39600   -254706.79    58.251397   -254648.54    284.68251    3821.0416    16117.588 
   39700   -254707.25    60.532562   -254646.72    295.83088    3971.6295    16117.588 
   39800   -254704.54    60.291913   -254644.25     294.6548    3989.0535    16117.588 
   39900      -254704    60.884256   -254643.11    297.54965    3995.9931    16117.588 
   40000   -254702.69    60.239514   -254642.45    294.39871    3953.1243    16117.588 
   40100   -254703.13    61.346758   -254641.78    299.80997    4063.4324    16117.588 
   40200   -254704.16    62.039645   -254642.12     303.1962    4072.5001    16117.588 
   40300   -254705.65    60.844099   -254644.81     297.3534    4048.8751    16117.588 
   40400   -254708.16    61.463412    -254646.7    300.38007    4033.3776    16117.588 
   40500   -254709.34    61.454738   -254647.88    300.33768    4033.1833    16117.588 
   40600   -254708.84    61.436309    -254647.4    300.24761    4031.7078    16117.588 
   40700    -254708.7     61.54025   -254647.16    300.75559    4125.0633    16117.588 
   40800   -254707.54    60.894112   -254646.65    297.59782    3996.9128    16117.588 
   40900   -254705.55      62.2472    -254643.3    304.21055    4123.9123    16117.588 
   41000   -254704.95    62.700375   -254642.25    306.42528    4116.4847    16117.588 
   41100   -254703.72    60.144106   -254643.57    293.93244    3947.0315    16117.588 
   41200   -254705.76    60.198659   -254645.56    294.19905    3950.0193    16117.588 
   41300   -254705.49    59.951339   -254645.54    292.99036    3933.9213    16117.588 
   41400   -254704.95    59.837577   -254645.12    292.43439    3955.7295    16117.588 
   41500   -254707.03    61.786522   -254645.24    301.95915     4054.732    16117.588 
   41600   -254705.78    59.850381   -254645.93    292.49697    3926.5065    16117.588 
   41700   -254705.92    58.237668   -254647.69    284.61542     3819.066    16117.588 
   41800   -254707.27    58.076705    -254649.2    283.82877    3833.5651    16117.588 
   41900   -254708.36    60.574191   -254647.79    296.03432    4117.1372    16117.588 
   42000   -254706.09    61.219894   -254644.87    299.18996    4017.1593    16117.588 
   42100   -254705.21     61.78213   -254643.42    301.93769    4088.1847    16117.588 
   42200    -254706.4    62.663344   -254643.74     306.2443     4163.296    16117.588 
   42300   -254706.79    60.467791   -254646.33    295.51433    3967.6782    16117.588 
   42400   -254706.18    58.557688   -254647.62     286.1794    3840.9298    16117.588 
   42500   -254705.73    62.375602   -254643.36    304.83806    4093.4455    16117.588 
   42600   -254704.86    62.318122   -254642.55    304.55715    4151.8975    16117.588 
   42700   -254702.36    58.909233   -254643.45    287.89745     3925.431    16117.588 
   42800      -254704    59.452505   -254644.55    290.55249    3900.0841    16117.588 
   42900   -254705.52    60.192219   -254645.32    294.16757    3948.9922    16117.588 
   43000   -254708.43    61.850143   -254646.58    302.27007    4058.9857    16117.588 
   43100    -254708.5    60.468466   -254648.03    295.51763    3967.0373    16117.588 
   43200   -254709.67    61.070381    -254648.6    298.45927    4007.1424    16117.588 
   43300   -254708.65    59.874542   -254648.77    292.61505    3927.4374    16117.588 
   43400   -254707.93    62.383734   -254645.55    304.87781    4094.0616    16117.588 
   43500   -254705.44    61.066285   -254644.37    298.43925    4006.8813    16117.588 
   43600   -254705.56    62.397734   -254643.16    304.94623    4095.4822    16117.588 
   43700   -254704.68    63.006005   -254641.68    307.91893    4134.6394    16117.588 
   43800   -254705.19    62.756001   -254642.43    306.69713    4117.2952    16117.588 
   43900   -254707.85    62.862113   -254644.99    307.21571    4125.0006    16117.588 
   44000   -254708.23    61.642952   -254646.59     301.2575    4082.1425    16117.588 
   44100   -254710.51    63.131895   -254647.38    308.53417    4144.6261    16117.588 
   44200   -254709.83    60.273366   -254649.55    294.56415    3955.4862    16117.588 
   44300   -254710.69    59.499542   -254651.19    290.78237    3938.0363    16117.588 
   44400   -254708.13    59.348199   -254648.78    290.04273    3894.6069    16117.588 
   44500   -254707.74    61.706219   -254646.04     301.5667    4050.6136    16117.588 
   44600   -254708.34    61.846381   -254646.49    302.25169    4059.6344    16117.588 
   44700   -254707.58    60.464487   -254647.12    295.49819     3968.769    16117.588 
   44800   -254708.01    61.146188   -254646.86    298.82975    4013.4952    16117.588 
   44900   -254707.89    62.674439   -254645.21    306.29852    4114.7364    16117.588 
   45000    -254706.5    61.197379   -254645.31    299.07993    4017.0049    16117.588 
   45100   -254706.98    61.257495   -254645.72    299.37373    4060.4956    16117.588 
   45200   -254708.63    60.413289   -254648.22    295.24797     3964.704    16117.588 
   45300   -254709.48    60.350014   -254649.13    294.93874    3960.6325    16117.588 
   45400   -254706.65    60.364001   -254646.29     295.0071    3960.5372    16117.588 
   45500   -254707.85    63.196765   -254644.65     308.8512    4148.2586    16117.588 
   45600   -254706.83     60.86685   -254645.96    297.46459    4038.3497    16117.588 
   45700   -254707.16    60.369067   -254646.79    295.03186    3961.4513    16117.588 
   45800   -254706.29    59.767993   -254646.52    292.09432    3919.2556    16117.588 
   45900   -254706.34    62.904862   -254643.43    307.42463     4128.257    16117.588 
   46000   -254704.57    62.092675   -254642.47    303.45536    4074.8477    16117.588 
   46100   -254705.32    61.580148   -254643.74    300.95057    4041.8085    16117.588 
   46200   -254707.48     62.11968   -254645.36    303.58734     4077.203    16117.588 
   46300   -254708.99     62.31194   -254646.68    304.52694     4118.131    16117.588 
   46400   -254709.84     61.39597   -254648.44    300.05047    4029.5083    16117.588 
   46500   -254711.04    61.590678   -254649.45    301.00203    4042.3726    16117.588 
   46600   -254708.79    60.698677   -254648.09     296.6427    4088.5789    16117.588 
   46700   -254706.86    61.409111   -254645.45    300.11469    4030.6704    16117.588 
   46800   -254707.62    62.239417   -254645.38    304.17251    4085.2887    16117.588 
   46900   -254707.47     62.12386   -254645.35    303.60777    4077.7882    16117.588 
   47000   -254707.28    61.816617   -254645.46    302.10623    4056.9493    16117.588 
   47100   -254708.02    60.411856   -254647.61    295.24097    3964.6824    16117.588 
   47200   -254708.83    59.331891   -254649.49    289.96304    3892.8548    16117.588 
   47300   -254708.32    59.914744    -254648.4    292.81152    3932.2228    16117.588 
   47400   -254705.73    60.779281   -254644.95    297.03663    3989.1633    16117.588 
   47500   -254706.37    61.628923   -254644.74    301.18894    4044.8325    16117.588 
   47600   -254707.35    62.682514   -254644.66    306.33799    4115.4511    16117.588 
   47700   -254707.84    61.635458    -254646.2    301.22088    4045.9507    16117.588 
   47800   -254709.08    60.408764   -254648.67    295.22586    3964.6151    16117.588 
   47900   -254708.04     59.57895   -254648.46    291.17044    3909.2414    16117.588 
   48000   -254708.38    61.010725   -254647.37    298.16773    4004.8013    16117.588 
   48100   -254710.35    63.174644   -254647.17    308.74309    4148.2658    16117.588 
   48200   -254709.08    61.661249   -254647.41    301.34692    4047.6107    16117.588 
   48300   -254706.79     59.37099   -254647.42    290.15412    3896.2372    16117.588 
   48400   -254705.28    61.836154   -254643.44    302.20171    4110.6402    16117.588 
   48500   -254704.76    61.744862   -254643.02    301.75555    4097.3242    16117.588 
   48600   -254705.36    61.991607   -254643.36    302.96143    4070.0126    16117.588 
   48700   -254706.42    60.470007   -254645.95    295.52516    3969.2497    16117.588 
   48800   -254707.18    59.302871   -254647.87    289.82121    3891.6481    16117.588 
   48900   -254706.36    59.918598   -254646.44    292.83035    3931.9409    16117.588 
   49000   -254708.06    63.064947   -254644.99    308.20699    4140.3698    16117.588 
   49100   -254706.94    62.526714   -254644.42    305.57657     4104.644    16117.588 
   49200   -254706.52    62.388513   -254644.13    304.90117    4168.0145    16117.588 
   49300   -254704.56    60.245085   -254644.32    294.42594    4010.4799    16117.588 
   49400   -254706.86    59.394387   -254647.46    290.26846    3897.0389    16117.588 
   49500   -254706.71    59.277266   -254647.43    289.69607    3889.5114    16117.588 
   49600   -254705.66     60.53682   -254645.12    295.85169    4016.4085    16117.588 
   49700   -254707.45    62.634538   -254644.81    306.10352    4154.6581    16117.588 
   49800   -254706.68       61.399   -254645.28    300.06528    4155.1543    16117.588 
   49900   -254706.15    58.963348   -254647.19    288.16191    3896.8889    16117.588 
   50000   -254708.17    62.659978   -254645.51    306.22785    4167.0802    16117.588 
   50100   -254705.71    62.719717   -254642.99     306.5198    4118.1722    16117.588 
   50200      -254706    62.437902   -254643.56    305.14253    4098.7484    16117.588 
   50300   -254706.67     61.16162   -254645.51    298.90517     4014.633    16117.588 
   50400   -254705.42    60.342567   -254645.08    294.90235    3960.4135    16117.588 
   50500   -254706.41    61.748314   -254644.66    301.77242    4054.1133    16117.588 
   50600   -254706.57    61.940412   -254644.63    302.71123     4066.982    16117.588 
   50700   -254707.54    61.782795   -254645.76    301.94093    4057.2664    16117.588 
   50800   -254708.99    62.919612   -254646.07    307.49672    4132.9407    16117.588 
   50900   -254708.32    61.236824   -254647.08     299.2727     4021.509    16117.588 
   51000   -254707.06    58.795494   -254648.27    287.34159    3884.1214    16117.588 
   51100   -254708.33    61.283949   -254647.05    299.50301    4114.5527    16117.588 
   51200   -254707.16    62.572852   -254644.58    305.80205    4191.7104    16117.588 
   51300   -254705.43    61.693027   -254643.74    301.50223    4050.1016    16117.588 
   51400   -254706.25    62.002207   -254644.24    303.01323    4070.5242    16117.588 
   51500   -254707.58    59.864412   -254647.71    292.56554    3929.0502    16117.588 
   51600   -254707.41    59.864166   -254647.55    292.56434    3928.7267    16117.588 
   51700   -254707.79    62.163076   -254645.63    303.79942    4110.2036    16117.588 
   51800   -254705.47    60.508618   -254644.97    295.71386    3970.1128    16117.588 
   51900   -254706.69    62.284819   -254644.41    304.39439    4089.0657    16117.588 
   52000   -254704.26    61.497875   -254642.77     300.5485    4061.1473    16117.588 
   52100   -254703.82    62.585618   -254641.23    305.86444    4108.3982    16117.588 
   52200    -254702.8    61.086252   -254641.71    298.53683    4008.2207    16117.588 
   52300   -254706.16    61.580678   -254644.58    300.95316    4042.1124    16117.588 
   52400   -254708.12    62.338028   -254645.78    304.65443    4115.6346    16117.588 
   52500   -254705.79    59.535144   -254646.26    290.95636    3946.6077    16117.588 
   52600   -254705.86    59.529752   -254646.34    290.93001    3929.5479    16117.588 
   52700   -254706.75    61.354008    -254645.4     299.8454    4027.1158    16117.588 
   52800   -254704.98    61.214711   -254643.77    299.16463    4017.8429    16117.588 
   52900   -254707.28    63.716937   -254643.56    311.39335    4184.2523    16117.588 
   53000   -254704.19     57.83124   -254646.36    282.62915    3793.7012    16117.588 
   53100   -254706.12    59.941494   -254646.18    292.94225    3960.7173    16117.588 
   53200   -254705.98    61.806846   -254644.17    302.05848    4089.8128    16117.588 
   53300   -254705.88    62.690815   -254643.19    306.37855    4152.8843    16117.588 
   53400   -254706.41    62.079086   -254644.33    303.38895     4131.091    16117.588 
   53500   -254708.13    61.856361   -254646.27    302.30046    4099.8472    16117.588 
   53600   -254707.58    59.985212   -254647.59     293.1559    3937.5793    16117.588 
   53700   -254707.03    60.850349   -254646.18    297.38394    3994.1235    16117.588 
   53800   -254706.14    62.316958   -254643.82    304.55146    4128.8766    16117.588 
   53900   -254706.08    62.410234   -254643.67    305.00732    4097.9325    16117.588 
   54000   -254704.92    59.892714   -254645.03    292.70385    3998.8999    16117.588 
   54100   -254706.86    59.505522   -254647.35    290.81159    3905.4847    16117.588 
   54200   -254706.17    60.078908   -254646.09    293.61381    3941.8737    16117.588 
   54300   -254706.29    62.507058   -254643.78    305.48051    4103.4731    16117.588 
   54400   -254706.22    63.003143   -254643.22    307.90494    4173.0732    16117.588 
   54500   -254706.61    61.036693   -254645.58    298.29464    4007.1204    16117.588 
   54600    -254709.7    61.919768   -254647.78    302.61034    4065.7772    16117.588 
   54700    -254707.9    60.459232   -254647.45     295.4725    3968.7786    16117.588 
   54800   -254707.04    61.554694   -254645.48    300.82618     4115.888    16117.588 
   54900   -254703.84    59.937255    -254643.9    292.92153     3979.779    16117.588 
   55000   -254705.09    62.831242   -254642.26    307.06484      4125.99    16117.588 
   55100   -254704.66    61.514988   -254643.15    300.63213    4037.9935    16117.588 
   55200   -254705.22    60.658604   -254644.56    296.44686    4036.7067    16117.588 
   55300   -254707.77    62.147673   -254645.62    303.72415    4107.3985    16117.588 
   55400   -254705.94    60.467858   -254645.47    295.51466    3969.8256    16117.588 
   55500   -254705.52    60.926444   -254644.59    297.75583    4029.2703    16117.588 
   55600   -254704.86    60.929631   -254643.93    297.77141    3998.6041    16117.588 
   55700   -254703.61    59.888578   -254643.72    292.68364    3929.6749    16117.588 
   55800   -254706.18     61.98121    -254644.2    302.91062    4067.8612    16117.588 
   55900   -254704.57    57.250979   -254647.32    279.79333    3781.5708    16117.588 
   56000   -254708.09    60.807313   -254647.28    297.17362    4019.9424    16117.588 
   56100   -254706.43    60.914996   -254645.52    297.69988    3998.3896    16117.588 
   56200   -254708.52    63.364416   -254645.16    309.67053    4160.9719    16117.588 
   56300   -254706.95    61.594685   -254645.36    301.02162    4136.4233    16117.588 
   56400   -254706.83    61.348012   -254645.48    299.81609     4106.568    16117.588 
   56500   -254704.24    62.314471   -254641.93    304.53931    4129.0935    16117.588 
   56600   -254702.89    62.191141    -254640.7    303.93658    4083.3481    16117.588 
   56700   -254704.16    61.990194   -254642.17    302.95452    4069.0705    16117.588 
   56800   -254706.58    61.558304   -254645.02    300.84382    4040.9876    16117.588 
   56900    -254707.4    61.747193   -254645.66    301.76695    4053.6564    16117.588 
   57000   -254705.13    59.722657   -254645.41    291.87276    3919.6594    16117.588 
   57100   -254704.14     61.78419   -254642.36    301.94776    4056.4532    16117.588 
   57200    -254703.9    62.853786   -254641.04    307.17502    4184.7354    16117.588 
   57300   -254703.83    62.008729   -254641.82    303.04511    4071.6773    16117.588 
   57400   -254704.71    61.773516   -254642.93    301.89559    4055.8908    16117.588 
   57500   -254705.13    61.114836   -254644.01    298.67653    4012.0666    16117.588 
   57600   -254705.02    60.068249   -254644.95    293.56171    3942.3721    16117.588 
   57700   -254705.04    60.331984    -254644.7    294.85062    3959.8512    16117.588 
   57800   -254705.18     61.25278   -254643.93    299.35068     4020.981    16117.588 
   57900   -254703.55    60.592518   -254642.96    296.12389    3977.4959    16117.588 
   58000   -254703.48    62.228515   -254641.25    304.11923    4085.7676    16117.588 
   58100    -254702.2    60.257868   -254641.94    294.48841    3954.7654    16117.588 
   58200   -254705.68    61.831064   -254643.85    302.17683    4059.5619    16117.588 
   58300    -254706.5    60.266474   -254646.23    294.53047    3955.6338    16117.588 
   58400   -254708.11    60.806893   -254647.31    297.17157    3991.0133    16117.588 
   58500   -254708.37    62.376727   -254645.99    304.84356    4095.4156    16117.588 
   58600    -254703.6    61.606539      -254642    301.07955    4069.2496    16117.588 
   58700   -254704.89    62.663352   -254642.23    306.24434    4114.3351    16117.588 
   58800   -254704.69    60.532076   -254644.16     295.8285    3973.0662    16117.588 
   58900   -254706.74    61.144743   -254645.59    298.82269    4045.4494    16117.588 
   59000   -254706.45    60.575786   -254645.88    296.04212    3974.5851    16117.588 
   59100   -254707.46    61.054784    -254646.4    298.38305    4029.5587    16117.588 
   59200   -254707.41    61.037917   -254646.37    298.30061    4006.0902    16117.588 
   59300   -254707.36    61.646094   -254645.72    301.27286    4046.3087    16117.588 
   59400   -254705.37    60.379993   -254644.99    295.08525    3962.0265    16117.588 
   59500   -254706.76    62.920947   -254643.84    307.50324    4172.7078    16117.588 
   59600   -254705.88    62.619676   -254643.26    306.03089     4146.792    16117.588 
   59700   -254708.14    62.234051   -254645.91    304.14629    4086.4435    16117.588 
   59800    -254707.3    59.966114   -254647.33    293.06257    3934.2999    16117.588 
   59900   -254707.29    60.172732   -254647.11    294.07234    3948.3349    16117.588 
   60000   -254707.99     62.62544   -254645.36    306.05906    4135.4982    16117.588 
   60100   -254704.94     62.27113   -254642.67     304.3275    4088.3061    16117.588 
   60200   -254705.91    61.918038      -254644    302.60189    4094.9751    16117.588 
   60300   -254707.22     62.44276   -254644.78    305.16628    4099.7415    16117.588 
   60400   -254705.76    60.419307   -254645.34    295.27739    4002.6663    16117.588 
   60500   -254707.24    60.360235   -254646.87    294.98869    3995.5016    16117.588 
   60600   -254706.91    59.192891   -254647.72    289.28372     3884.709    16117.588 
   60700   -254706.11    61.234502   -254644.88    299.26136     4052.329    16117.588 
   60800   -254705.42    62.190973   -254643.23    303.93576    4083.1008    16117.588 
   60900   -254704.94    61.816533   -254643.12    302.10582    4108.4816    16117.588 
   61000   -254706.09    61.598264   -254644.49    301.03911    4043.7584    16117.588 
   61100    -254707.3    60.851109   -254646.44    297.38766    3994.3498    16117.588 
   61200   -254709.91    60.943076   -254648.96    297.83712    4000.6697    16117.588 
   61300   -254709.74     60.37763   -254649.37     295.0737    3962.0655    16117.588 
   61400   -254708.42    61.815367   -254646.61    302.10012    4057.8247    16117.588 
   61500   -254706.58    62.232714   -254644.35    304.13975    4132.1177    16117.588 
   61600   -254704.48    61.050119   -254643.43    298.36025    4006.3999    16117.588 
   61700   -254705.47    61.449381   -254644.02     300.3115    4033.8474    16117.588 
   61800   -254704.41    59.202263   -254645.21    289.32952    3884.4137    16117.588 
   61900   -254704.92    59.028135   -254645.89    288.47854    3873.0019    16117.588 
   62000    -254703.1     59.73718   -254643.36    291.94374    3919.7686    16117.588 
   62100   -254704.07    62.771559    -254641.3    306.77316    4119.9323    16117.588 
   62200   -254703.64    61.936381    -254641.7    302.69153    4064.8948    16117.588 
   62300   -254707.05    63.372121   -254643.68    309.70819    4226.8417    16117.588 
   62400   -254705.23    59.736438   -254645.49    291.94011    3918.8509    16117.588 
   62500   -254707.07     62.68445   -254644.39    306.34745    4114.2265    16117.588 
   62600   -254706.34    62.114908   -254644.23    303.56402    4076.9867    16117.588 
   62700   -254708.86    62.179218   -254646.68    303.87831    4081.2577    16117.588 
   62800    -254707.2    58.587927   -254648.61    286.32718    3842.9939    16117.588 
   62900   -254706.19    59.272092   -254646.91    289.67079    3887.7751    16117.588 
   63000   -254708.26    63.173562   -254645.09     308.7378    4147.0065    16117.588 
   63100   -254709.32    63.282348   -254646.04    309.26946    4181.7216    16117.588 
   63200   -254708.73    60.835609   -254647.89    297.31191    3992.2529    16117.588 
   63300   -254708.62    60.549915   -254648.07    295.91568    4005.5952    16117.588 
   63400   -254709.32      61.8625   -254647.46    302.33047    4060.9887    16117.588 
   63500   -254705.95    60.218979   -254645.73    294.29835    3951.9384    16117.588 
   63600    -254706.3    62.394682    -254643.9    304.93131    4125.4705    16117.588 
   63700   -254707.56    62.596317   -254644.97    305.91673    4109.4107    16117.588 
   63800   -254707.84     62.02515   -254645.81    303.12536    4071.5848    16117.588 
   63900   -254708.25    61.263853   -254646.99     299.4048    4021.3439    16117.588 
   64000      -254707    60.236125   -254646.76    294.38215    3953.2059    16117.588 
   64100   -254705.27    61.273711      -254644    299.45297    4054.3836    16117.588 
   64200   -254703.87    61.480354   -254642.39    300.46286    4034.4252    16117.588 
   64300   -254705.82    62.958576   -254642.86    307.68714     4133.427    16117.588 
   64400   -254706.54    60.944878   -254645.59    297.84592    4000.7673    16117.588 
   64500   -254706.96    60.712615   -254646.25    296.71082     3984.923    16117.588 
   64600   -254704.93    59.236967   -254645.69    289.49913    3911.5498    16117.588 
   64700    -254706.2    61.701145    -254644.5     301.5419    4078.1523    16117.588 
   64800   -254708.72    63.981354   -254644.74    312.68559    4201.9407    16117.588 
   64900   -254706.95    60.976222   -254645.97     297.9991     4035.428    16117.588 
   65000   -254705.93     59.41618   -254646.52    290.37497    3956.1302    16117.588 
   65100   -254707.52    61.784341   -254645.73    301.94849     4114.002    16117.588 
   65200   -254704.91    61.141455   -254643.77    298.80662    4050.1084    16117.588 
   65300   -254705.95    63.496414   -254642.45    310.31563    4169.2362    16117.588 
   65400    -254704.1    60.843424   -254643.26     297.3501    4020.2943    16117.588 
   65500   -254706.97     60.89163   -254646.08    297.58569    4026.3284    16117.588 
   65600   -254707.59    60.263068   -254647.33    294.51382    3954.8878    16117.588 
   65700   -254706.57    60.340798   -254646.23     294.8937    3983.5746    16117.588 
   65800   -254706.62    62.453629   -254644.16    305.21939    4100.4584    16117.588 
   65900   -254706.73    63.290758   -254643.44    309.31056    4155.3148    16117.588 
   66000   -254709.08    62.705573   -254646.38    306.45068    4162.4059    16117.588 
   66100   -254708.68    60.877094   -254647.81    297.51465    3996.1856    16117.588 
   66200    -254706.9    59.712672   -254647.19    291.82396    3917.8795    16117.588 
   66300   -254708.48    62.591444   -254645.89    305.89291     4108.253    16117.588 
   66400    -254705.8    60.461363   -254645.34    295.48292    3967.3549    16117.588 
   66500   -254707.07    61.541419   -254645.52     300.7613    4039.0554    16117.588 
   66600   -254708.37    61.177323   -254647.19    298.98191    4015.2007    16117.588 
   66700   -254710.04    60.803056   -254649.24    297.15282    3990.3817    16117.588 
   66800   -254709.42    60.250577   -254649.17    294.45278    3995.8063    16117.588 
   66900   -254707.89    61.527933   -254646.36    300.69539    4165.5123    16117.588 
   67000   -254707.04    62.178181   -254644.86    303.87324    4081.0345    16117.588 
   67100   -254706.76    61.405176   -254645.36    300.09546    4028.7552    16117.588 
   67200   -254706.01    60.482914   -254645.53    295.58824    3967.8965    16117.588 
   67300   -254707.12    59.213207   -254647.91    289.38301    3909.4543    16117.588 
   67400   -254708.95     59.43684   -254649.51    290.47594    3898.9692    16117.588 
   67500   -254708.31    59.649717   -254648.66    291.51629    3946.0118    16117.588 
   67600   -254707.86    61.914287   -254645.95    302.58356    4102.7105    16117.588 
   67700   -254707.59    62.390808    -254645.2    304.91238      4094.39    16117.588 
   67800   -254706.39    60.289792    -254646.1    294.64443    3955.6428    16117.588 
   67900   -254707.51    61.540074   -254645.97    300.75473    4038.5294    16117.588 
   68000   -254707.25    62.750838    -254644.5    306.67189    4118.4789    16117.588 
   68100   -254705.68    63.030798   -254642.65     308.0401    4136.4765    16117.588 
   68200   -254705.32    62.161642   -254643.16    303.79241    4080.3285    16117.588 
   68300   -254708.42    62.451856   -254645.97    305.21073    4099.4758    16117.588 
   68400      -254707    59.602755    -254647.4    291.28678    3939.5432    16117.588 
   68500   -254706.74    60.270781   -254646.47    294.55152    3953.5107    16117.588 
   68600   -254707.76    62.614932   -254645.15     306.0077    4109.5945    16117.588 
   68700   -254708.01    63.088933   -254644.92    308.32421    4141.6682    16117.588 
   68800   -254706.37    61.055153   -254645.32    298.38485    4149.0454    16117.588 
   68900   -254707.63    59.293788   -254648.33    289.77682    3925.1725    16117.588 
   69000   -254709.17     59.07443   -254650.09    288.70479    3875.7216    16117.588 
   69100   -254709.31    61.312167      -254648    299.64091    4071.5735    16117.588 
   69200   -254709.17    62.151188   -254647.02    303.74132    4079.7628    16117.588 
   69300    -254708.6    60.905743   -254647.69    297.65466     3996.666    16117.588 
   69400   -254707.19    60.050706   -254647.13    293.47598     3940.057    16117.588 
   69500   -254704.41    61.280025   -254643.13    299.48383    4021.1631    16117.588 
   69600   -254706.47    63.346744   -254643.12    309.58417    4158.6843    16117.588 
   69700   -254705.81    60.757417   -254645.05    296.92977    4019.8571    16117.588 
   69800    -254706.5    60.527815   -254645.97    295.80768    3997.6966    16117.588 
   69900   -254705.25    61.467788   -254643.79    300.40146    4033.5964    16117.588 
   70000   -254706.02     64.98027   -254641.04    317.56743    4329.2134    16117.588 
   70100   -254704.86    63.667134    -254641.2    311.14996     4174.508    16117.588 
   70200      -254706    62.886542   -254643.12     307.3351    4126.8494    16117.588 
   70300    -254705.7    61.352141   -254644.35    299.83627    4069.4154    16117.588 
   70400   -254704.57    58.863651    -254645.7    287.67468     3860.821    16117.588 
   70500   -254707.45     61.53732   -254645.91    300.74127    4167.3218    16117.588 
   70600   -254705.26    61.311478   -254643.95    299.63755    4022.9268    16117.588 
   70700    -254705.9    65.202589    -254640.7    318.65394     4280.948    16117.588 
   70800   -254704.24    62.370196   -254641.87    304.81165     4093.357    16117.588 
   70900   -254704.98     61.97328   -254643.01    302.87186    4066.3783    16117.588 
   71000    -254707.8    62.821993   -254644.98    307.01964    4122.9969    16117.588 
   71100   -254707.36     61.29012   -254646.07    299.53317    4022.2728    16117.588 
   71200   -254707.24     61.69453   -254645.54    301.50957    4082.5292    16117.588 
   71300   -254707.18    62.684162    -254644.5    306.34604     4158.963    16117.588 
   71400   -254705.21     61.10677   -254644.11    298.63711    4081.0667    16117.588 
   71500   -254706.65      63.2137   -254643.43    308.93396    4180.3348    16117.588 
   71600   -254707.61    62.764812   -254644.85    306.74019    4120.1885    16117.588 
   71700    -254705.8    58.946107   -254646.86    288.07766    3867.8861    16117.588 
   71800   -254707.65    60.344476   -254647.31    294.91167    3961.0253    16117.588 
   71900   -254706.24    61.613113   -254644.62    301.11168    4131.3562    16117.588 
   72000   -254707.01    63.875365   -254643.13    312.16761    4194.2909    16117.588 
   72100   -254706.02    61.243165   -254644.77    299.30369     4059.637    16117.588 
   72200   -254707.22    61.055258   -254646.17    298.38536    4051.2091    16117.588 
   72300   -254706.23    59.096561   -254647.14    288.81295    3878.3267    16117.588 
   72400   -254708.69    61.756828   -254646.94    301.81403     4054.404    16117.588 
   72500   -254707.99    61.871911   -254646.12    302.37646    4062.0677    16117.588 
   72600   -254709.13    63.677704   -254645.45    311.20162    4182.1111    16117.588 
   72700   -254709.16    62.005468   -254647.16    303.02917    4070.9714    16117.588 
   72800   -254709.69    60.711538   -254648.98    296.70556    3985.3653    16117.588 
   72900   -254708.56    60.146915   -254648.42    293.94617    3948.0677    16117.588 
   73000   -254707.02    61.867942   -254645.16    302.35706     4061.389    16117.588 
   73100   -254704.46    60.411857   -254644.05    295.24097    3965.3337    16117.588 
   73200   -254705.89    61.581946   -254644.31    300.95936    4076.6033    16117.588 
   73300   -254706.32    61.005025   -254645.31    298.13987    4005.0071    16117.588 
   73400      -254707    59.449853   -254647.55    290.53953    3901.5495    16117.588 
   73500   -254708.47    59.440506   -254649.03    290.49385    3924.4842    16117.588 
   73600   -254708.92    60.780431   -254648.14    297.04225    4068.5698    16117.588 
   73700   -254707.21    62.665661   -254644.54    306.25562    4114.7554    16117.588 
   73800    -254705.7    61.846075   -254643.85     302.2502    4138.4275    16117.588 
   73900   -254706.17    61.646682   -254644.52    301.27573    4046.7387    16117.588 
   74000   -254707.05    60.383122   -254646.66    295.10054    3963.0007    16117.588 
   74100   -254708.99    61.256357   -254647.73    299.36816    4083.2061    16117.588 
   74200   -254708.63    61.078617   -254647.55    298.49952    4009.4661    16117.588 
   74300   -254707.71    62.249596   -254645.46    304.22226    4086.4299    16117.588 
   74400   -254705.85    61.850267      -254644    302.27068    4083.5127    16117.588 
   74500   -254706.94    62.201431   -254644.74    303.98687    4084.3171    16117.588 
   74600   -254708.68    61.311812   -254647.37    299.63918    4025.2433    16117.588 
   74700   -254708.71    59.815992   -254648.89     292.3289    3963.5639    16117.588 
   74800   -254708.88    61.366723   -254647.51    299.90753    4028.2781    16117.588 
   74900   -254705.03    60.979795   -254644.05    298.01656    4003.1205    16117.588 
   75000   -254705.73    61.807978   -254643.92    302.06401    4058.6353    16117.588 
   75100   -254706.81    62.350865   -254644.46    304.71717    4094.8448    16117.588 
   75200   -254706.61    61.101898    -254645.5     298.6133    4010.3699    16117.588 
   75300   -254707.88    60.557259   -254647.32    295.95157    3975.3513    16117.588 
   75400    -254710.7    61.420617   -254649.28    300.17092      4091.86    16117.588 
   75500   -254709.72    59.644566   -254650.07    291.49112    3915.0201    16117.588 
   75600   -254708.31    61.296462   -254647.01    299.56416    4025.1007    16117.588 
   75700   -254706.08    61.123336   -254644.96    298.71807    4013.8739    16117.588 
   75800    -254705.3    62.314263   -254642.99     304.5383    4092.3045    16117.588 
   75900   -254705.81    62.485555   -254643.33    305.37542    4164.9514    16117.588 
   76000   -254706.63    60.404581   -254646.22    295.20542    3965.9035    16117.588 
   76100   -254706.84    60.593979   -254646.25    296.13103    3978.7206    16117.588 
   76200   -254706.39    60.712137   -254645.68    296.70848    3985.8076    16117.588 
   76300   -254706.53    61.868152   -254644.66    302.35809    4062.9352    16117.588 
   76400   -254706.08    64.145926   -254641.94    313.48988    4213.9599    16117.588 
   76500   -254706.23    64.450143   -254641.78    314.97663    4265.8198    16117.588 
   76600   -254707.55    61.712917   -254645.84    301.59943    4111.2132    16117.588 
   76700   -254706.67    59.579944   -254647.09     291.1753     3910.992    16117.588 
   76800   -254705.69    60.123365   -254645.57    293.83107    3946.8624    16117.588 
   76900   -254704.32    60.963537   -254643.35    297.93711    4027.3296    16117.588 
   77000   -254704.37    61.111521   -254643.26    298.66033    4012.3344    16117.588 
   77100    -254704.8    60.794328   -254644.01    297.11016     3991.495    16117.588 
   77200    -254706.6    60.252321   -254646.35     294.4613    3955.4041    16117.588 
   77300   -254707.32    59.800349   -254647.52    292.25245    3923.2116    16117.588 
   77400   -254706.36    60.632042   -254645.73    296.31705    3979.8623    16117.588 
   77500   -254704.11     60.41492   -254643.69    295.25594    3965.2523    16117.588 
   77600   -254704.98    61.573119   -254643.41    300.91622    4041.5288    16117.588 
   77700   -254706.06    61.725761   -254644.33     301.6622    4052.0279    16117.588 
   77800   -254706.61    60.559704   -254646.05    295.96353    3975.2628    16117.588 
   77900   -254707.17    59.226751   -254647.95     289.4492    3886.7115    16117.588 
   78000    -254708.9    59.482395   -254649.42    290.69857    3903.9173    16117.588 
   78100   -254707.38    59.350815   -254648.03    290.05552     3895.278    16117.588 
   78200   -254706.62    61.299855   -254645.32    299.58074    4024.1364    16117.588 
   78300   -254706.28    60.791759   -254645.49    297.09761    3991.2991    16117.588 
   78400   -254705.85     60.94597    -254644.9    297.85126    4001.1972    16117.588 
   78500   -254706.47    61.744367   -254644.73    301.75313    4084.6886    16117.588 
   78600   -254708.79    63.079587   -254645.71    308.27854    4142.4969    16117.588 
   78700   -254709.82    61.685627   -254648.14    301.46606    4050.3912    16117.588 
   78800   -254708.83    60.055036   -254648.78    293.49714    3943.3764    16117.588 
   78900    -254707.4    60.836079   -254646.57    297.31421    4018.5516    16117.588 
   79000   -254707.39    62.203654   -254645.19    303.99773    4084.5114    16117.588 
   79100   -254706.98    61.588534   -254645.39    300.99155    4044.1589    16117.588 
   79200   -254706.83    60.264078   -254646.57    294.51876    3956.9309    16117.588 
   79300   -254707.93    60.783447   -254647.14    297.05699      3990.67    16117.588 
   79400   -254706.93    60.262987   -254646.66    294.51343    3982.8554    16117.588 
   79500   -254708.47    61.149295   -254647.32    298.84494    4014.5864    16117.588 
   79600   -254706.99    60.736282   -254646.25    296.82649    4021.5979    16117.588 
   79700   -254708.53    63.348063   -254645.18    309.59062    4160.6229    16117.588 
   79800   -254708.57    60.864049    -254647.7     297.4509    4024.2349    16117.588 
   79900   -254709.56    60.429462   -254649.13    295.32702     3967.599    16117.588 
   80000    -254709.7    61.160921   -254648.53    298.90175    4015.1194    16117.588 
   80100   -254708.52    61.018322    -254647.5    298.20485    4006.6631    16117.588 
   80200   -254709.76    62.340759   -254647.42    304.66778    4121.3062    16117.588 
   80300   -254710.84    62.740108    -254648.1    306.61945    4121.3806    16117.588 
   80400   -254708.79    60.596808    -254648.2    296.14486    3978.4956    16117.588 
   80500   -254706.45    60.377464   -254646.07    295.07289    3964.5452    16117.588 
   80600   -254707.97    63.750646   -254644.22    311.55809    4225.0975    16117.588 
   80700   -254708.62    63.225647    -254645.4    308.99235     4228.043    16117.588 
   80800   -254708.05    61.449236    -254646.6    300.31079    4056.9361    16117.588 
   80900   -254708.64    61.566653   -254647.08    300.88462    4068.3105    16117.588 
   81000   -254709.16    61.670282   -254647.49    301.39107    4049.0954    16117.588 
   81100   -254707.05    61.129506   -254645.92    298.74822    4014.1429    16117.588 
   81200   -254706.66    62.798394   -254643.86    306.90431    4163.8346    16117.588 
   81300   -254704.85    60.598725   -254644.25    296.15422    3978.6182    16117.588 
   81400   -254707.59    61.143748   -254646.45    298.81783    4095.4939    16117.588 
   81500   -254708.23    60.364312   -254647.87    295.00862    3963.0966    16117.588 
   81600   -254708.64    61.596241   -254647.05    301.02922    4044.4913    16117.588 
   81700   -254706.78    60.749552   -254646.03    296.89134    4014.3345    16117.588 
   81800   -254706.98    60.575649    -254646.4    296.04145    4008.5108    16117.588 
   81900   -254708.18     61.73738   -254646.45    301.71899    4054.7078    16117.588 
   82000   -254705.84    59.278494   -254646.56    289.70208    3891.5515    16117.588 
   82100    -254705.7    62.161934   -254643.54    303.79384    4082.7696    16117.588 
   82200    -254705.2    62.943843   -254642.26    307.61514    4134.9301    16117.588 
   82300   -254706.76    62.546338   -254644.21    305.67247    4106.9485    16117.588 
   82400   -254708.57    62.941594   -254645.63    307.60415    4134.0733    16117.588 
   82500   -254707.17    61.029158   -254646.14    298.25781    4006.7765    16117.588 
   82600   -254706.61    62.447527   -254644.17    305.18957     4124.746    16117.588 
   82700   -254705.02     64.18427   -254640.84    313.67727    4263.4606    16117.588 
   82800   -254705.44    62.161034   -254643.28    303.78944    4081.2454    16117.588 
   82900   -254705.95     60.46159   -254645.48    295.48403    3997.7049    16117.588 
   83000   -254704.93    59.482986   -254645.44    290.70146    3904.9091    16117.588 
   83100   -254704.87    61.278494   -254643.59    299.47635    4049.6435    16117.588 
   83200   -254706.63     62.95287   -254643.68    307.65925    4135.8504    16117.588 
   83300   -254707.98    60.654385   -254647.32    296.42624    3982.6214    16117.588 
   83400   -254708.76    61.317855   -254647.44    299.66871    4026.7001    16117.588 
   83500    -254706.6    60.526137   -254646.08    295.79948     3973.671    16117.588 
   83600   -254706.92      62.7312   -254644.19    306.57592    4219.7174    16117.588 
   83700   -254705.66    61.230259   -254644.43    299.24062    4051.6921    16117.588 
   83800   -254706.06    60.168245   -254645.89    294.05041    3950.4771    16117.588 
   83900   -254710.14    60.624807   -254649.51    296.28169    3980.9704    16117.588 
   84000   -254708.74    59.820401   -254648.92    292.35045    3928.3848    16117.588 
   84100   -254706.52    59.240077   -254647.28    289.51433    3889.4477    16117.588 
   84200   -254708.47    63.031118   -254645.44    308.04166    4140.7946    16117.588 
   84300   -254709.14    63.512601   -254645.63    310.39473    4172.0698    16117.588 
   84400   -254707.65    61.291745   -254646.36    299.54111    4024.5284    16117.588 
   84500   -254709.01    61.629835   -254647.38     301.1934    4104.3116    16117.588 
   84600      -254708    60.216806   -254647.78    294.28774    3998.9963    16117.588 
   84700   -254707.29    61.986729   -254645.31    302.93759    4070.3775    16117.588 
   84800   -254706.04    63.181062   -254642.86    308.77446    4209.8609    16117.588 
   84900   -254706.78    62.021819   -254644.75    303.10908    4073.8315    16117.588 
   85000   -254707.68    60.367559   -254647.31    295.02449    3963.8887    16117.588 
   85100   -254706.27    58.525094   -254647.74    286.02011    3841.1959    16117.588 
   85200   -254707.12    60.881674   -254646.24    297.53704    3998.0333    16117.588 
   85300   -254706.93    63.241289   -254643.69    309.06879    4155.0003    16117.588 
   85400   -254704.13    61.185958   -254642.95    299.02411    4017.7358    16117.588 
   85500   -254706.16     63.34275   -254642.82    309.56465    4160.7609    16117.588 
   85600   -254706.76    63.361562    -254643.4    309.65659    4162.0484    16117.588 
   85700   -254707.42    62.004554   -254645.41     303.0247    4071.8073    16117.588 
   85800   -254709.07    60.932428   -254648.13    297.78508    4001.8948    16117.588 
   85900   -254709.56    58.972013   -254650.59    288.20426    3871.5642    16117.588 
   86000   -254710.45    60.879655   -254649.57    297.52717    4053.9277    16117.588 
   86100   -254709.98    61.823243   -254648.15    302.13861    4122.8617    16117.588 
   86200   -254710.24    61.703625   -254648.54    301.55402    4051.8669    16117.588 
   86300    -254707.3    59.502567   -254647.79    290.79715    3906.3087    16117.588 
   86400   -254706.98    61.569349   -254645.41     300.8978     4081.166    16117.588 
   86500   -254706.95    62.446223    -254644.5     305.1832    4101.9317    16117.588 
   86600    -254706.6      61.8543   -254644.74    302.29039    4091.0999    16117.588 
   86700   -254707.17    62.306345   -254644.86     304.4996    4127.6355    16117.588 
   86800   -254706.11    60.625542   -254645.49    296.28528    3980.3733    16117.588 
   86900   -254706.61    60.697883   -254645.91    296.63883    3985.5013    16117.588 
   87000   -254705.62    60.035138   -254645.58     293.3999    3967.5072    16117.588 
   87100   -254705.48    63.044617   -254642.44    308.10763    4140.4445    16117.588 
   87200   -254704.45    62.539822   -254641.91    305.64063    4106.6899    16117.588 
   87300   -254705.91    61.451728   -254644.46    300.32297    4098.8014    16117.588 
   87400   -254706.76    60.866947    -254645.9    297.46506    4044.4555    16117.588 
   87500   -254708.15    61.183651   -254646.97    299.01284    4043.4812    16117.588 
   87600   -254708.99    62.038777   -254646.95    303.19195    4073.8078    16117.588 
   87700   -254707.91    63.204067   -254644.71    308.88688    4263.8422    16117.588 
   87800   -254705.83    62.818618   -254643.01    307.00314    4125.6095    16117.588 
   87900   -254705.95    61.544544    -254644.4    300.77657    4084.1478    16117.588 
   88000   -254709.03    61.749114   -254647.28    301.77633    4055.2848    16117.588 
   88100   -254708.26    60.929764   -254647.33    297.77206    4001.8487    16117.588 
   88200    -254708.8    61.802646   -254646.99    302.03795    4093.3694    16117.588 
   88300   -254705.98    60.807591   -254645.17    297.17498    3993.5311    16117.588 
[...]
  408900   -254707.55    62.088631   -254645.46     303.4356    4080.3463    16117.588 
  409000   -254709.52    63.002337   -254646.52      307.901    4141.0137    16117.588 
  409100   -254710.24     61.40626   -254648.83    300.10076    4035.1646    16117.588 
  409200   -254709.82    61.080784   -254648.74    298.51011    4013.2376    16117.588 
  409300   -254707.75    63.162048   -254644.59    308.68153    4151.7561    16117.588 
  409400   -254706.68    63.048891   -254643.63    308.12852     4143.921    16117.588 
  409500   -254704.72    60.469944   -254644.25    295.52485    4005.7035    16117.588 
  409600    -254706.7    61.001357    -254645.7    298.12194    4009.8576    16117.588 
  409700   -254707.82    60.801245   -254647.02    297.14397     3996.855    16117.588 
  409800   -254707.62    60.094856   -254647.52    293.69175    3994.2402    16117.588 
  409900   -254707.23    61.570489   -254645.66    300.90337    4047.8795    16117.588 
  410000   -254705.75    61.919347   -254643.83    302.60828    4071.1798    16117.588 
  410100   -254706.23    62.284766   -254643.94    304.39414    4095.7829    16117.588 
  410200   -254706.46    59.521919   -254646.94    290.89173    3911.9535    16117.588 
  410300   -254706.98    59.345582   -254647.63    290.02995    3900.0817    16117.588 
  410400   -254708.77    62.113377   -254646.65    303.55654    4111.4436    16117.588 
  410500   -254706.45    61.008166   -254645.44    298.15522    4009.2686    16117.588 
  410600   -254706.43    61.811644   -254644.62    302.08192    4062.8243    16117.588 
  410700   -254705.22    59.161278   -254646.06    289.12923    3887.7207    16117.588 
  410800   -254709.27    59.572695    -254649.7    291.13988    3914.6882    16117.588 
  410900   -254708.93    59.493605   -254649.43    290.75335    4000.8138    16117.588 
  411000   -254706.89    59.788208    -254647.1    292.19312    3929.7524    16117.588 
  411100   -254708.26    62.831494   -254645.43    307.06607    4131.1549    16117.588 
  411200   -254707.41    62.195837   -254645.22    303.95953     4088.726    16117.588 
  411300   -254707.01     60.83273   -254646.18    297.29784    4041.2592    16117.588 
  411400   -254707.77    60.029576   -254647.74    293.37272     3945.644    16117.588 
  411500   -254708.64    59.707062   -254648.93    291.79655    3924.5907    16117.588 
  411600   -254707.94    59.842179    -254648.1    292.45688    4008.8583    16117.588 
  411700   -254707.96    61.878465   -254646.08    302.40849    4067.6904    16117.588 
  411800   -254709.58    64.160918   -254645.41    313.56315     4218.728    16117.588 
  411900   -254708.67    61.238938   -254647.43    299.28304     4025.417    16117.588 
  412000   -254709.01    60.908645    -254648.1    297.66885    4123.7165    16117.588 
  412100   -254706.81    59.936639   -254646.87    292.91852    3939.0675    16117.588 
  412200   -254709.21    63.328844   -254645.88    309.49669    4163.1859    16117.588 
  412300   -254708.91    63.018682   -254645.89    307.98088    4175.9425    16117.588 
  412400   -254708.35    60.642534    -254647.7    296.36833     3985.586    16117.588 
  412500   -254709.13    61.152738   -254647.98    298.86176    4170.2706    16117.588 
  412600   -254707.59    60.860332   -254646.73    297.43273    4031.3523    16117.588 
  412700   -254703.02    58.770427   -254644.25    287.21908    3861.0508    16117.588 
  412800   -254705.21    62.561069   -254642.64    305.74447    4112.0176    16117.588 
  412900   -254706.54    62.711087   -254643.83    306.47763    4122.3665    16117.588 
  413000   -254706.57    60.003971   -254646.57    293.24758    3942.9829    16117.588 
  413100   -254708.99    62.113224   -254646.88    303.55579    4180.2047    16117.588 
  413200   -254708.56    61.060525    -254647.5     298.4111    4012.5597    16117.588 
  413300   -254709.18    60.252465   -254648.93    294.46201    3959.7087    16117.588 
  413400   -254710.62    60.940768   -254649.68    297.82584    4035.7516    16117.588 
  413500   -254710.37    60.478559    -254649.9    295.56696    3975.0154    16117.588 
  413600   -254708.33    60.919981   -254647.41    297.72425    4003.8204    16117.588 
  413700   -254706.13    61.430005    -254644.7     300.2168    4168.7558    16117.588 
  413800   -254705.82    61.659878   -254644.16    301.34022     4051.817    16117.588 
  413900   -254706.13    60.473134   -254645.65    295.54045    4044.1444    16117.588 
  414000   -254708.13    60.891899   -254647.24    297.58701    4052.2118    16117.588 
  414100   -254707.25    59.001955   -254648.25    288.35059    3928.8559    16117.588 
  414200   -254708.62    61.398556   -254647.22    300.06311    4079.3228    16117.588 
  414300   -254708.26    63.191079   -254645.07    308.82341    4153.9742    16117.588 
  414400   -254708.21    62.878703   -254645.33    307.29679     4133.127    16117.588 
  414500   -254707.76    61.144061   -254646.61    298.81936     4018.678    16117.588 
  414600   -254709.24    59.934354    -254649.3    292.90735    3938.6848    16117.588 
  414700   -254710.25    61.375176   -254648.87    299.94885    4073.6253    16117.588 
  414800   -254707.47    62.079002   -254645.39    303.38854    4080.8152    16117.588 
  414900   -254707.11    61.944851   -254645.16    302.73292     4072.613    16117.588 
  415000   -254706.27    60.492297   -254645.78     295.6341     3975.858    16117.588 
  415100   -254706.47    61.647979   -254644.82    301.28207    4088.1087    16117.588 
  415200    -254707.6    64.607852   -254642.99    315.74737    4247.4585    16117.588 
  415300    -254707.4     61.50835   -254645.89    300.59969    4042.4117    16117.588 
  415400   -254707.87    59.967342    -254647.9    293.06857    4025.5088    16117.588 
  415500   -254707.56    60.593384   -254646.97    296.12813      4011.47    16117.588 
  415600   -254707.35    62.259829   -254645.09    304.27226    4092.1124    16117.588 
  415700   -254707.27    61.717498   -254645.55    301.62182    4055.8968    16117.588 
  415800   -254707.87    59.655461   -254648.22    291.54436    3919.1469    16117.588 
  415900    -254707.2    59.194576      -254648    289.29196    3919.7925    16117.588 
  416000   -254706.68    62.072744   -254644.61    303.35796    4150.7277    16117.588 
  416100   -254705.68    62.483024    -254643.2    305.36305    4106.8851    16117.588 
  416200    -254705.7    62.613023   -254643.08    305.99837    4156.4943    16117.588 
  416300   -254704.25    60.393164   -254643.86    295.14962    3968.1106    16117.588 
  416400    -254704.6    58.225249   -254646.38    284.55473    3824.3893    16117.588 
  416500    -254707.1    60.215113   -254646.89    294.27946       3956.1    16117.588 
  416600   -254706.45    62.632842   -254643.82    306.09523     4114.512    16117.588 
  416700   -254706.69    63.387967    -254643.3    309.78563    4166.6549    16117.588 
  416800   -254706.85    61.830294   -254645.02    302.17307    4063.0798    16117.588 
  416900   -254706.22    60.186903   -254646.04     294.1416    3955.1679    16117.588 
  417000   -254707.01     61.36386   -254645.64    299.89354    4032.9715    16117.588 
  417100   -254706.52    62.028713    -254644.5    303.14277    4076.9328    16117.588 
  417200   -254705.45    61.495774   -254643.96    300.53822    4041.9134    16117.588 
  417300   -254704.12    63.774246   -254640.34    311.67343    4192.6086    16117.588 
  417400   -254703.73    64.497767   -254639.23    315.20938    4240.7569    16117.588 
  417500   -254702.14    61.499304   -254640.64    300.55548     4082.331    16117.588 
  417600   -254704.81    62.597674   -254642.21    305.92336    4114.0097    16117.588 
  417700   -254706.62    62.277622   -254644.34    304.35922    4149.0148    16117.588 
  417800   -254706.73    60.643338   -254646.08    296.37226    3985.1806    16117.588 
  417900   -254707.14    60.974706   -254646.17    297.99169    4041.8812    16117.588 
  418000   -254708.55    60.727591   -254647.82    296.78401     4035.594    16117.588 
  418100   -254708.09    60.571286   -254647.52    296.02013    3980.4322    16117.588 
  418200    -254706.6    61.094963    -254645.5    298.57941    4015.5066    16117.588 
  418300   -254705.05    61.464032   -254643.59     300.3831    4072.5051    16117.588 
  418400   -254706.83    63.648371   -254643.18    311.05826    4184.7089    16117.588 
  418500   -254707.25    61.152296    -254646.1     298.8596    4019.4118    16117.588 
  418600   -254708.22    60.935129   -254647.28    297.79828    4003.3531    16117.588 
  418700   -254706.34    60.519418   -254645.82    295.76664    3976.8209    16117.588 
  418800   -254705.42    61.140876   -254644.28    298.80379    4018.2395    16117.588 
  418900    -254706.9    62.858098   -254644.04    307.19609    4131.6321    16117.588 
  419000    -254705.3    60.319497   -254644.98     294.7896    3991.8268    16117.588 
  419100   -254705.91    58.810905    -254647.1     287.4169    3922.5123    16117.588 
  419200   -254708.73    59.137059   -254649.59    289.01086    3886.1021    16117.588 
  419300   -254708.91    61.098461   -254647.81     298.5965    4015.9514    16117.588 
  419400   -254706.89    61.614174   -254645.28    301.11686    4050.8994    16117.588 
  419500   -254706.81    62.640255   -254644.17    306.13146    4119.1151    16117.588 
  419600   -254706.04    63.011059   -254643.03    307.94363    4143.2969    16117.588 
  419700   -254704.58    63.056569   -254641.53    308.16605    4145.8966    16117.588 
  419800   -254704.37    61.046312   -254643.33    298.34164    4012.7137    16117.588 
  419900   -254707.61    61.228873   -254646.38    299.23384     4024.844    16117.588 
  420000   -254705.05    59.501039   -254645.55    290.78968    3910.6032    16117.588 
  420100   -254705.76    61.788244   -254643.97    301.96757    4117.4791    16117.588 
  420200   -254704.65    61.093196   -254643.56    298.57077      4050.72    16117.588 
  420300   -254707.78     63.11487   -254644.66    308.45097    4177.7895    16117.588 
  420400   -254707.95    59.983221   -254647.97    293.14617    3943.5105    16117.588 
  420500   -254709.18    59.625185   -254649.56     291.3964    3943.4318    16117.588 
  420600    -254708.8    60.828246   -254647.98    297.27593    3999.4567    16117.588 
  420700   -254707.54    61.580965   -254645.96    300.95457    4129.6227    16117.588 
  420800   -254706.21    61.444466   -254644.77    300.28748    4069.8378    16117.588 
  420900   -254706.73    61.795117   -254644.94    302.00116    4062.9086    16117.588 
  421000   -254706.91    60.599767   -254646.31    296.15932    3983.5324    16117.588 
  421100   -254706.08    58.160621   -254647.92    284.23888    3844.4532    16117.588 
  421200   -254706.92    60.620218    -254646.3    296.25926    3984.6203    16117.588 
  421300   -254707.52    63.498376   -254644.02    310.32521    4198.8291    16117.588 
  421400   -254707.56    63.214582   -254644.35    308.93827    4155.7109    16117.588 
  421500   -254707.24    61.290854   -254645.95    299.53675    4028.9383    16117.588 
  421600      -254709    62.716744   -254646.29    306.50527    4123.7247    16117.588 
  421700   -254709.66    62.040759   -254647.62    303.20164     4079.039    16117.588 
  421800    -254708.1    58.162048   -254649.94    284.24585    3821.8358    16117.588 
  421900   -254708.51    60.198508   -254648.31    294.19831    3994.2244    16117.588 
  422000   -254706.66    61.082397   -254645.58      298.518    4089.3454    16117.588 
  422100   -254706.93    62.141779   -254644.79    303.69534    4085.1532    16117.588 
  422200   -254706.84     62.34705   -254644.49    304.69853    4097.2047    16117.588 
  422300   -254707.26    62.840253   -254644.42    307.10888    4131.2248    16117.588 
  422400   -254710.42    62.911337   -254647.51    307.45628    4136.9571    16117.588 
  422500   -254709.91    60.173359   -254649.74     294.0754    4000.5123    16117.588 
  422600   -254707.96    59.210626   -254648.75    289.37039    3892.4811    16117.588 
  422700   -254705.19    59.068225   -254646.12    288.67446    3882.4259    16117.588 
  422800   -254705.58    60.879807    -254644.7    297.52791    4000.6422    16117.588 
  422900   -254707.19    63.520463   -254643.67    310.43316    4177.9283    16117.588 
  423000   -254707.08    60.684715    -254646.4    296.57447    4085.2737    16117.588 
  423100   -254708.08    60.006487   -254648.07    293.25988    3971.0577    16117.588 
  423200    -254709.6    62.350224   -254647.25    304.71404     4099.289    16117.588 
  423300    -254707.6    61.671004   -254645.93     301.3946    4114.2766    16117.588 
  423400    -254704.8    60.406827   -254644.39    295.21639    3993.0238    16117.588 
  423500   -254702.45    61.587587   -254640.86    300.98693    4048.0478    16117.588 
  423600   -254703.26    62.227766   -254641.04    304.11557    4090.6608    16117.588 
  423700   -254705.41    62.030219   -254643.38    303.15013    4076.9179    16117.588 
  423800   -254706.16    60.637173   -254645.52    296.34213    3986.0409    16117.588 
  423900   -254706.69    61.893203    -254644.8    302.48051    4069.6757    16117.588 
  424000   -254707.69    64.566125   -254643.12    315.54345    4245.5676    16117.588 
  424100   -254706.52     62.96629   -254643.55    307.72484    4169.6886    16117.588 
  424200   -254706.86    60.250105   -254646.61    294.45047    3960.3031    16117.588 
  424300   -254708.18    60.584549    -254647.6    296.08495    3982.6855    16117.588 
  424400   -254707.53     61.51786   -254646.01    300.64616    4072.9188    16117.588 
  424500    -254707.8    63.275531   -254644.52    309.23614    4210.6008    16117.588 
  424600   -254706.08      62.2344   -254643.85    304.14799    4090.9693    16117.588 
  424700   -254703.01    59.150042   -254643.86    289.07431    3886.4889    16117.588 
  424800   -254705.84    61.850366   -254643.99    302.27116    4066.2799    16117.588 
  424900   -254705.55    60.619049   -254644.94    296.25355    3984.4862    16117.588 
  425000      -254707    62.073346   -254644.93     303.3609    4079.8521    16117.588 
  425100   -254706.94    59.904943   -254647.04    292.76362    3965.3123    16117.588 
  425200   -254709.19    59.576196   -254649.62    291.15699    3915.0156    16117.588 
  425300   -254709.69    62.332676   -254647.35    304.62828     4128.266    16117.588 
  425400   -254708.29     61.72167   -254646.57    301.64221    4056.9527    16117.588 
  425500   -254707.06    61.108372   -254645.95    298.64494    4016.5297    16117.588 
  425600   -254706.95    61.223827   -254645.73    299.20918    4023.3706    16117.588 
  425700    -254708.7    60.626409   -254648.08    296.28952    3983.0249    16117.588 
  425800   -254710.74    60.127384   -254650.61    293.85072    3976.4933    16117.588 
  425900      -254708    59.203597    -254648.8    289.33604    3888.8585    16117.588 
  426000   -254706.77     60.37353    -254646.4    295.05367    3966.2909    16117.588 
  426100   -254705.77    59.899441   -254645.87    292.73673    3934.6948    16117.588 
  426200   -254706.79    62.322749   -254644.47    304.57976    4094.6741    16117.588 
  426300   -254705.34     62.57638   -254642.76    305.81929    4111.4066    16117.588 
  426400   -254705.85    61.515054   -254644.33    300.63245    4041.4617    16117.588 
  426500   -254707.75    60.282187   -254647.46    294.60726     3987.235    16117.588 
  426600   -254708.47    61.309766   -254647.16    299.62918    4065.4982    16117.588 
  426700    -254706.6    61.238033   -254645.36    299.27861    4022.2547    16117.588 
  426800   -254707.68    63.444419   -254644.24    310.06152    4168.6051    16117.588 
  426900   -254706.43    62.867258   -254643.57    307.24085    4131.3393    16117.588 
  427000   -254707.78    61.220038   -254646.56    299.19066     4090.938    16117.588 
  427100   -254706.82    59.309593   -254647.51    289.85406    3896.7978    16117.588 
  427200   -254707.41    60.949055   -254646.46    297.86633    4005.5168    16117.588 
  427300   -254706.45    61.976277   -254644.47    302.88651    4073.4067    16117.588 
  427400   -254706.04    64.771669   -254641.27    316.54797    4314.7848    16117.588 
  427500   -254704.66    61.450562   -254643.21    300.31727    4064.3704    16117.588 
  427600   -254703.93    58.410761   -254645.52    285.46135    3836.4771    16117.588 
  427700    -254706.3    60.531678   -254645.76    295.82656     4001.324    16117.588 
  427800   -254705.89    60.559348   -254645.33    295.96178    4006.7858    16117.588 
  427900   -254705.48    61.516957   -254643.96    300.64175    4042.1289    16117.588 
  428000   -254706.09    62.929311   -254643.16    307.54412     4135.127    16117.588 
  428100   -254709.61    62.991454   -254646.62    307.84782    4172.3567    16117.588 
  428200   -254710.09    61.575916   -254648.51    300.92989    4044.8098    16117.588 
  428300   -254708.33    60.388528   -254647.94    295.12696    3966.1915    16117.588 
  428400   -254707.21    61.225959   -254645.98     299.2196    4020.8046    16117.588 
  428500   -254707.21     62.37122   -254644.84    304.81665    4096.9984    16117.588 
  428600   -254708.24    62.137282    -254646.1    303.67336     4081.672    16117.588 
  428700   -254710.58    61.167778   -254649.41    298.93526    4018.2541    16117.588 
  428800   -254711.23    61.481029   -254649.75    300.46617    4039.6474    16117.588 
  428900   -254709.72    60.828796   -254648.89    297.27862    4026.7377    16117.588 
  429000   -254709.63    62.391366   -254647.24    304.91511    4100.1149    16117.588 
  429100   -254707.64    64.182373   -254643.46      313.668    4219.0408    16117.588 
  429200   -254707.52    62.955853   -254644.56    307.67383    4138.2409    16117.588 
  429300   -254705.91    59.095923   -254646.82    288.80983    3908.9647    16117.588 
  429400   -254708.18    61.584121   -254646.59    300.96999    4047.9403    16117.588 
  429500    -254707.4    60.844204   -254646.56    297.35391    3997.8124    16117.588 
  429600   -254707.14    62.068833   -254645.07    303.33884    4079.4818    16117.588 
  429700    -254705.9    63.141847   -254642.76    308.58281     4149.729    16117.588 
  429800   -254706.32    62.739157   -254643.58    306.61481    4146.2441    16117.588 
  429900   -254707.64     60.97491   -254646.66    297.99269    4005.5294    16117.588 
  430000   -254709.43    62.376623   -254647.06    304.84305    4097.7499    16117.588 
Loop time of 70108.1 on 1 procs for 430000 steps with 1584 atoms

Performance: 0.265 ns/day, 90.579 hours/ns, 6.133 timesteps/s
98.8% CPU use with 1 MPI tasks x 1 OpenMP threads

MPI task timing breakdown:
Section |  min time  |  avg time  |  max time  |%varavg| %total
---------------------------------------------------------------
Pair    | 66661      | 66661      | 66661      |   0.0 | 95.08
Kspace  | 221.71     | 221.71     | 221.71     |   0.0 |  0.32
Neigh   | 1014.2     | 1014.2     | 1014.2     |   0.0 |  1.45
Comm    | 11.285     | 11.285     | 11.285     |   0.0 |  0.02
Output  | 2186.5     | 2186.5     | 2186.5     |   0.0 |  3.12
Modify  | 11.471     | 11.471     | 11.471     |   0.0 |  0.02
Other   |            | 1.864      |            |       |  0.00

Nlocal:        1584.00 ave        1584 max        1584 min
Histogram: 1 0 0 0 0 0 0 0 0 0
Nghost:        10188.0 ave       10188 max       10188 min
Histogram: 1 0 0 0 0 0 0 0 0 0
Neighs:        819384.0 ave      819384 max      819384 min
Histogram: 1 0 0 0 0 0 0 0 0 0
FullNghs:  1.12488e+06 ave 1.12488e+06 max 1.12488e+06 min
Histogram: 1 0 0 0 0 0 0 0 0 0

Total # of neighbors = 1124882
Ave neighs/atom = 710.15278
Neighbor list builds = 43000
Dangerous builds not checked
Total wall time: 19:28:33
