LAMMPS (29 Sep 2021 - Update 2)
OMP_NUM_THREADS environment is not set. Defaulting to 1 thread. (src/comm.cpp:98)
  using 1 OpenMP thread(s) per MPI task
Reading data file ...
  orthogonal box = (0.0000000 0.0000000 0.0000000) to (25.260000 25.260000 25.260000)
  1 by 1 by 1 MPI processor grid
WARNING: Atom style in data file differs from currently defined atom style (src/read_data.cpp:516)
  reading atoms ...
  1584 atoms
  read_data CPU = 0.007 seconds
NequIP Coeff: type 1 is element O
NequIP Coeff: type 2 is element H
NequIP Coeff: type 3 is element Li
NequIP Coeff: type 4 is element Cl
Scanning dump file ...
Reading snapshot from dump file ...
  orthogonal box = (0.0000000 0.0000000 0.0000000) to (25.260000 25.260000 25.260000)
  1584 atoms before read
  1584 atoms in snapshot
  0 atoms purged
  1584 atoms replaced
  0 atoms trimmed
  0 atoms added
  1584 atoms after read
PPPM initialization ...
  using 12-bit tables for long-range coulomb (src/kspace.cpp:340)
  G vector (1/distance) = 0.22568151
  grid = 9 9 9
  stencil order = 5
  estimated absolute RMS force accuracy = 8.1621662e-06
  estimated relative force accuracy = 5.6683107e-07
  using double precision FFTW3
  3d grid and FFT values/proc = 2744 729
Neighbor list info ...
  update every 10 steps, delay 0 steps, check no
  max neighbors/atom: 2000, page size: 100000
  master list distance cutoff = 12
  ghost atom cutoff = 12
  binsize = 6, bins = 5 5 5
  3 neighbor lists, perpetual/occasional/extra = 3 0 0
  (1) pair nequip, perpetual
      attributes: full, newton off
      pair build: full/bin/atomonly
      stencil: full/bin/3d
      bin: standard
  (2) pair coul/long, perpetual, half/full from (1)
      attributes: half, newton off
      pair build: halffull/newtoff
      stencil: none
      bin: none
  (3) pair gauss/cut, perpetual, copy from (2)
      attributes: half, newton off
      pair build: copy
      stencil: none
      bin: none
Setting up Verlet run ...
  Unit style    : metal
  Current step  : 0
  Time step     : 0.0005
Per MPI rank memory allocation (min/avg/max) = 16.42 | 16.42 | 16.42 Mbytes
Step PotEng KinEng TotEng Temp Press Volume 
       0   -254646.87    71.616583   -254575.25          350    4726.4923    16117.588 
     100   -254663.82    82.067327   -254581.75    401.07421    5393.9245    16117.588 
     200   -254670.38    79.124113   -254591.26    386.69032    5201.0156    16117.588 
     300   -254672.27    72.504665   -254599.76    354.34017    4760.3656    16117.588 
     400   -254678.03    71.924591   -254606.11    351.50527    4723.1386    16117.588 
     500   -254681.66    71.383909   -254610.27    348.86289    4779.2888    16117.588 
     600    -254682.7    70.466556   -254612.23    344.37966    4626.1381    16117.588 
     700   -254682.63     70.03864   -254612.59    342.28837    4638.2542    16117.588 
     800   -254683.95    72.849961    -254611.1    356.02768    4782.9398    16117.588 
     900   -254684.54    72.807242   -254611.73    355.81891    4781.9944    16117.588 
    1000   -254684.37     69.55714   -254614.82    339.93522    4566.6895    16117.588 
    1100   -254686.64    70.237394    -254616.4    343.25972    4641.7447    16117.588 
    1200   -254688.14    70.962035   -254617.18    346.80113    4659.4794    16117.588 
    1300   -254689.06    73.037939   -254616.02    356.94636    4796.7453    16117.588 
    1400    -254689.2    75.085376   -254614.11    366.95246    4933.2008    16117.588 
    1500   -254687.04    71.937346    -254615.1    351.56761     4723.799    16117.588 
    1600   -254688.71    70.709203      -254618    345.56551    4643.1625    16117.588 
    1700   -254687.24    68.829351   -254618.41    336.37841    4543.7431    16117.588 
    1800   -254687.97    72.384289   -254615.59    353.75188    4753.7965    16117.588 
    1900   -254687.37    72.498077   -254614.88    354.30798    4788.4107    16117.588 
    2000   -254686.45    71.351228    -254615.1    348.70317    4707.2194    16117.588 
    2100   -254688.74    73.936085   -254614.81    361.33572    4854.5306    16117.588 
    2200   -254688.26    69.969612   -254618.29    341.95103    4615.3434    16117.588 
    2300   -254689.99    69.985323   -254620.01    342.02781    4616.8177    16117.588 
    2400   -254688.56    69.170352   -254619.39    338.04493    4540.3711    16117.588 
    2500   -254687.43    71.026694   -254616.41    347.11713    4662.7739    16117.588 
    2600   -254687.28    72.418798   -254614.86    353.92053    4756.0418    16117.588 
    2700   -254687.28    72.901773   -254614.38     356.2809    4786.8767    16117.588 
    2800   -254687.53    70.268415   -254617.26    343.41132    4611.7839    16117.588 
    2900   -254688.68    70.037537   -254618.64    342.28299     4596.699    16117.588 
    3000   -254688.09     71.01495   -254617.08    347.05974    4662.2063    16117.588 
    3100   -254688.75    73.129311   -254615.62    357.39291    4802.5689    16117.588 
    3200   -254689.25    73.085308   -254616.16    357.17786    4799.0887    16117.588 
    3300   -254687.46    70.082046   -254617.38    342.50051    4599.2158    16117.588 
    3400   -254687.54    70.376993   -254617.16    343.94195    4650.6862    16117.588 
    3500   -254688.84    70.378375   -254618.46    343.94871     4619.951    16117.588 
    3600   -254690.25    70.379214   -254619.87    343.95281    4644.7561    16117.588 
    3700    -254690.2    71.570702   -254618.63    349.77577    4699.9445    16117.588 
    3800   -254689.37    73.678175   -254615.69    360.07528    4839.9548    16117.588 
    3900   -254686.77    72.202104   -254614.57    352.86152     4741.458    16117.588 
    4000   -254686.33    72.966944   -254613.37     356.5994    4839.7802    16117.588 
    4100   -254685.13    73.990622   -254611.13    361.60225    4859.7102    16117.588 
    4200   -254685.16    70.837916   -254614.32    346.19455    4651.3649    16117.588 
    4300   -254686.14    70.125637   -254616.02    342.71354    4604.5489    16117.588 
    4400   -254687.37     71.21938   -254616.15    348.05882    4677.2259    16117.588 
    4500   -254687.31    72.910716    -254614.4     356.3246    4824.9191    16117.588 
    4600   -254686.68    71.433191   -254615.24    349.10374    4719.6352    16117.588 
    4700   -254686.28    69.098587   -254617.19    337.69421    4612.7136    16117.588 
    4800   -254689.17    71.207777   -254617.96    348.00211    4744.0635    16117.588 
    4900   -254688.11    71.442711   -254616.67    349.15026    4691.8799    16117.588 
    5000   -254686.34    72.984487   -254613.35    356.68513    4794.8322    16117.588 
    5100   -254685.28    71.632851   -254613.65     350.0795    4703.8348    16117.588 
    5200   -254687.99    71.901991   -254616.09    351.39483    4722.5731    16117.588 
    5300   -254686.09    68.941714   -254617.15    336.92755    4525.9022    16117.588 
    5400   -254687.44    71.710331   -254615.73    350.45816    4745.9833    16117.588 
    5500   -254688.63    73.892444   -254614.74    361.12244    4853.4282    16117.588 
    5600   -254685.97    70.809331   -254615.16    346.05485    4650.0991    16117.588 
    5700   -254689.01    69.784986   -254619.22    341.04873    4582.7504    16117.588 
    5800   -254688.53    69.019337   -254619.51     337.3069    4531.7171    16117.588 
    5900   -254689.18    71.831281   -254617.34    351.04926    4718.2825    16117.588 
    6000   -254689.27    72.235761   -254617.03      353.026    4744.6498    16117.588 
    6100   -254687.21     69.92767   -254617.28    341.74605    4591.1367    16117.588 
    6200   -254689.48    73.202021   -254616.28    357.74825    4807.9426    16117.588 
    6300    -254686.4    71.865825   -254614.53    351.21808    4720.5852    16117.588 
    6400   -254684.97    71.930037   -254613.04    351.53189    4759.1271    16117.588 
    6500   -254685.51    71.239464   -254614.27    348.15696    4702.2993    16117.588 
    6600   -254689.03    71.389755   -254617.64    348.89146    4688.1454    16117.588 
    6700   -254689.22    71.454371   -254617.77    349.20724    4730.3592    16117.588 
    6800   -254686.79     70.20677   -254616.58    343.11005    4659.6403    16117.588 
    6900   -254686.11    71.221219   -254614.89     348.0678    4677.3018    16117.588 
    7000   -254685.76     72.72324   -254613.04    355.40838    4776.5759    16117.588 
    7100   -254684.56    75.079281   -254609.48    366.92268    4933.0407    16117.588 
    7200   -254682.04    72.014794   -254610.03    351.94611    4756.7347    16117.588 
    7300   -254685.52    72.488494   -254613.04    354.26115    4817.9043    16117.588 
    7400   -254685.17    70.879405   -254614.29    346.39731    4654.8923    16117.588 
    7500    -254686.9    71.210173   -254615.69    348.01382    4676.3485    16117.588 
    7600    -254687.4    70.717422   -254616.68    345.60568    4675.7906    16117.588 
    7700   -254689.06     71.97737   -254617.09    351.76321    4728.7963    16117.588 
    7800   -254687.88     70.69872   -254617.19    345.51428    4643.6802    16117.588 
    7900   -254687.86    71.366627   -254616.49    348.77843    4671.5819    16117.588 
    8000   -254687.42     70.95367   -254616.46    346.76025    4654.8282    16117.588 
    8100   -254688.53    71.382668   -254617.15    348.85682    4687.8278    16117.588 
    8200   -254687.96    69.906619   -254618.05    341.64317    4589.4339    16117.588 
    8300   -254686.55    69.726175   -254616.83    340.76132    4577.4851    16117.588 
    8400   -254689.11    74.079635   -254615.03    362.03727    4866.5273    16117.588 
    8500   -254686.34    71.520663   -254614.82    349.53122    4697.3973    16117.588 
    8600   -254688.54    73.249893   -254615.29     357.9822     4849.888    16117.588 
    8700   -254689.39    71.979971   -254617.41    351.77592    4802.3381    16117.588 
    8800   -254689.31    70.267848   -254619.04    343.40855     4614.579    16117.588 
    8900   -254688.54    71.923368   -254616.62     351.4993    4721.9958    16117.588 
    9000    -254684.2     69.57931   -254614.62    340.04357    4606.5587    16117.588 
    9100   -254686.17    72.968024    -254613.2    356.60467    4793.4689    16117.588 
    9200   -254685.28    71.398598   -254613.88    348.93468    4690.0403    16117.588 
    9300   -254686.71     71.22714   -254615.48    348.09674    4714.3406    16117.588 
    9400   -254689.44    72.233043   -254617.21    353.01272    4768.4234    16117.588 
    9500   -254689.61    68.132917   -254621.48    332.97485    4472.8238    16117.588 
    9600   -254690.27    68.111283   -254622.15    332.86912    4471.0643    16117.588 
    9700   -254690.89    72.048388   -254618.84    352.11029     4732.165    16117.588 
    9800   -254689.29    72.859009   -254616.43    356.07191      4786.97    16117.588 
    9900   -254688.39     72.57398   -254615.81    354.67893    4767.8189    16117.588 
   10000   -254688.67    72.084969   -254616.58    352.28906    4734.5019    16117.588 
   10100   -254687.85    69.110146   -254618.74     337.7507    4597.4782    16117.588 
   10200   -254688.19    70.048866   -254618.14    342.33835    4600.2349    16117.588 
   10300   -254687.97    73.667565    -254614.3    360.02343    4839.3221    16117.588 
   10400   -254687.33    73.236449   -254614.09     357.9165    4810.6055    16117.588 
   10500   -254686.18    71.070082   -254615.11    347.32917    4666.7792    16117.588 
   10600   -254688.01    72.475792   -254615.53    354.19907    4791.1635    16117.588 
   10700   -254690.43    70.354294   -254620.08    343.83102    4712.0996    16117.588 
   10800   -254690.34    70.431164   -254619.91    344.20669    4626.0327    16117.588 
   10900   -254689.59    71.918569   -254617.67    351.47585    4725.7963    16117.588 
   11000   -254687.53    70.973275   -254616.55    346.85607    4660.2588    16117.588 
   11100   -254688.06    73.648366   -254614.42     359.9296    4840.0271    16117.588 
   11200   -254685.45    74.724285   -254610.73    365.18776    4947.7473    16117.588 
   11300   -254686.48     74.71186   -254611.76    365.12704    4938.5312    16117.588 
   11400   -254688.57    73.581369   -254614.98    359.60218    4834.6464    16117.588 
   11500   -254686.76     70.34314   -254616.42    343.77651    4620.4481    16117.588 
   11600   -254687.05    71.333884   -254615.72    348.61841    4714.4342    16117.588 
   11700   -254689.25    74.679027   -254614.58    364.96658    4907.7319    16117.588 
   11800    -254688.6    70.722027   -254617.87    345.62818    4646.2518    16117.588 
   11900   -254688.82    69.532113   -254619.29    339.81291    4567.9125    16117.588 
   12000   -254690.27    72.328944   -254617.95     353.4814    4751.8338    16117.588 
   12100   -254689.34     71.71986   -254617.62    350.50472    4709.4396    16117.588 
   12200   -254686.22     70.24869   -254615.97    343.31492    4615.2701    16117.588 
   12300   -254685.19    72.961198   -254612.23    356.57132    4794.8711    16117.588 
   12400   -254685.89    74.673871   -254611.22    364.94138    4907.7603    16117.588 
   12500   -254684.27    70.943395   -254613.32    346.71004    4661.7956    16117.588 
   12600    -254686.8    71.136223   -254615.67    347.65241    4673.0364    16117.588 
   12700   -254686.79    70.324382   -254616.47    343.68484    4620.1613    16117.588 
   12800   -254687.52    72.879177   -254614.64    356.17047     4851.509    16117.588 
   12900   -254686.53    74.275881   -254612.25    362.99635     4882.007    16117.588 
   13000   -254686.12    72.121258      -254614    352.46641    4738.2378    16117.588 
   13100   -254689.25    72.229314   -254617.02     352.9945    4745.8187    16117.588 
   13200   -254689.47    71.656177   -254617.81     350.1935    4707.7964    16117.588 
   13300   -254688.47    72.260808    -254616.2    353.14841     4831.076    16117.588 
   13400   -254687.31    74.003191    -254613.3    361.66368    4863.8132    16117.588 
   13500   -254686.17    73.137882   -254613.04     357.4348    4915.9555    16117.588 
   13600   -254687.07    72.155966   -254614.91    352.63604    4741.1443    16117.588 
   13700   -254687.57    70.911227   -254616.66    346.55283    4658.0455    16117.588 
   13800   -254687.87    71.505765   -254616.37    349.45842    4697.5204    16117.588 
   13900   -254688.22    72.510015   -254615.71    354.36632    4762.8043    16117.588 
   14000   -254690.03    71.565359   -254618.46    349.74966    4729.8352    16117.588 
   14100   -254690.16    69.264483   -254620.89    338.50497    4577.1278    16117.588 
   14200   -254689.51    69.977622   -254619.53    341.99017    4596.2207    16117.588 
   14300   -254687.82      71.2374   -254616.59    348.14688    4714.7055    16117.588 
   14400   -254687.69    71.312178   -254616.38    348.51233    4722.9708    16117.588 
   14500   -254688.49    71.433206   -254617.06    349.10381    4745.3783    16117.588 
   14600   -254689.75    71.542855   -254618.21    349.63968    4699.3443    16117.588 
   14700   -254688.91    68.630426   -254620.28    335.40624    4506.9025    16117.588 
   14800   -254690.57    71.121429   -254619.45    347.58012    4672.9929    16117.588 
   14900   -254689.66    73.126013   -254616.54    357.37679     4805.712    16117.588 
   15000   -254689.38    73.284688   -254616.09    358.15225    4814.3133    16117.588 
   15100   -254688.92    71.255502   -254617.66    348.23534    4752.6571    16117.588 
   15200   -254689.46    70.430969   -254619.03    344.20574    4688.2598    16117.588 
   15300   -254690.89    72.323736   -254618.57    353.45595    4750.6624    16117.588 
   15400   -254689.76    71.644654   -254618.11    350.13718    4706.3547    16117.588 
   15500   -254689.72    71.853366   -254617.86    351.15719    4797.3312    16117.588 
   15600   -254689.03     69.38769   -254619.64    339.10709    4557.7916    16117.588 
   15700   -254688.56    68.392529   -254620.17    334.24361    4492.3701    16117.588 
   15800   -254688.55    71.111708   -254617.44    347.53261    4673.3567    16117.588 
   15900   -254688.79    73.380117   -254615.41    358.61863    4823.8838    16117.588 
   16000   -254687.21    72.290911   -254614.92    353.29553    4750.1752    16117.588 
   16100   -254687.69    71.199136   -254616.49    347.95988    4679.7357    16117.588 
   16200   -254690.26    70.873734   -254619.39    346.36959    4657.7863    16117.588 
   16300   -254690.03    68.318342   -254621.71    333.88105    4552.5327    16117.588 
   16400   -254690.63    70.333514    -254620.3    343.72947    4620.9122    16117.588 
   16500   -254688.72    70.404023   -254618.32    344.07405    4677.7755    16117.588 
   16600   -254691.73    74.236469   -254617.49    362.80374    4913.7075    16117.588 
   16700   -254689.84    72.315144   -254617.52    353.41396    4750.7305    16117.588 
   16800   -254689.47    70.717479   -254618.75    345.60596     4645.123    16117.588 
   16900   -254691.18    70.854461   -254620.33    346.27541    4656.3763    16117.588 
   17000   -254689.62    67.507836   -254622.11    329.91999    4506.5506    16117.588 
   17100   -254690.59    72.368079   -254618.22    353.67266     4757.382    16117.588 
   17200   -254688.21    71.698734   -254616.52    350.40148    4711.4447    16117.588 
   17300   -254687.24     71.36925   -254615.87    348.79125    4687.3544    16117.588 
   17400   -254688.74     71.32607   -254617.41    348.58022    4687.4576    16117.588 
   17500   -254691.54    70.983963   -254620.55     346.9083    4665.3007    16117.588 
   17600    -254691.2    70.700461    -254620.5    345.52278    4647.0431    16117.588 
   17700   -254690.96    72.700252   -254618.26    355.29604    4810.1223    16117.588 
   17800   -254688.88    71.074518    -254617.8    347.35085    4670.3644    16117.588 
   17900   -254688.76    71.472282   -254617.29    349.29478    4730.1338    16117.588 
   18000   -254690.84    71.329302   -254619.51    348.59602    4687.0243    16117.588 
   18100   -254692.96    69.754829   -254623.21    340.90135    4582.6047    16117.588 
   18200   -254693.78     72.11434   -254621.66     352.4326    4739.8001    16117.588 
   18300   -254691.41    72.026225   -254619.38    352.00197    4733.3568    16117.588 
   18400   -254687.89     70.19851   -254617.69    343.06968    4611.3373    16117.588 
   18500   -254686.85     71.21341   -254615.64    348.02964    4823.3435    16117.588 
   18600   -254688.07    72.607337   -254615.47    354.84195    4771.8349    16117.588 
   18700   -254688.89    73.142899   -254615.75    357.45931    4830.6951    16117.588 
   18800   -254688.27    71.760154   -254616.51    350.70165    4715.3346    16117.588 
   18900   -254687.03    70.186292   -254616.84    343.00997    4651.8199    16117.588 
   19000   -254687.76    71.047603   -254616.71    347.21932    4716.5414    16117.588 
   19100   -254687.72     70.68815   -254617.03    345.46262    4695.8694    16117.588 
   19200   -254687.57    72.473442    -254615.1    354.18759    4762.0097    16117.588 
   19300   -254687.57    73.935147   -254613.63    361.33114    4859.6979    16117.588 
   19400   -254686.97    73.226744   -254613.74    357.86907    4846.6568    16117.588 
   19500   -254689.01    71.190783   -254617.82    347.91906    4719.7433    16117.588 
   19600   -254689.79    70.967524   -254618.82    346.82796    4701.3808    16117.588 
   19700   -254688.52    70.228339   -254618.29    343.21546    4611.7042    16117.588 
   19800   -254689.68    73.393156   -254616.29    358.68235    4910.9098    16117.588 
   19900   -254688.73    75.083081   -254613.65    366.94125    4972.5324    16117.588 
   20000   -254685.79    69.827629   -254615.96    341.25714     4585.918    16117.588 
   20100   -254690.46     71.13892   -254619.32    347.66559    4673.0868    16117.588 
   20200   -254691.82    73.216158    -254618.6    357.81734    4811.6951    16117.588 
   20300   -254688.69    71.626908   -254617.06    350.05046    4706.9629    16117.588 
   20400   -254689.97     74.96974      -254615    366.38733    4927.1948    16117.588 
   20500   -254686.94    74.438736    -254612.5    363.79225    4892.5829    16117.588 
   20600   -254688.02    73.550775   -254614.47    359.45266    4887.6637    16117.588 
   20700    -254689.8    72.367658   -254617.43    353.67061    4756.0745    16117.588 
   20800   -254690.22    71.591443   -254618.63    349.87714    4705.6927    16117.588 
   20900   -254689.11    70.012771    -254619.1    342.16195    4625.6568    16117.588 
   21000   -254689.25    72.783777   -254616.47    355.70423    4784.0391    16117.588 
   21100   -254687.04    72.976243   -254614.06    356.64484    4797.4214    16117.588 
   21200   -254687.95    74.081025   -254613.87    362.04406     4913.433    16117.588 
   21300   -254687.82    71.961014   -254615.86    351.68328     4759.675    16117.588 
   21400    -254687.1    70.803857   -254616.29     346.0281    4651.7927    16117.588 
   21500    -254686.7    70.276889   -254616.42    343.45273    4618.4978    16117.588 
   21600   -254688.68    73.548396   -254615.13    359.44103     4910.157    16117.588 
   21700   -254687.43    71.146577   -254616.29    347.70301    4677.0557    16117.588 
   21800   -254688.61    69.370329   -254619.24    339.02225    4558.0426    16117.588 
   21900   -254690.41     71.37213   -254619.03    348.80532    4690.6741    16117.588 
   22000   -254687.37    71.652065   -254615.72    350.17341     4771.472    16117.588 
   22100   -254686.86     71.75862    -254615.1    350.69415    4769.6067    16117.588 
   22200   -254690.94    73.973838   -254616.96    361.52023    4863.1435    16117.588 
   22300   -254691.05    71.549924    -254619.5    349.67423    4699.8704    16117.588 
   22400   -254690.88    70.493826   -254620.39    344.51293    4632.2508    16117.588 
   22500   -254689.46    70.633854   -254618.83    345.19727    4642.1232    16117.588 
   22600   -254686.33    70.160614   -254616.17    342.88448    4609.7768    16117.588 
   22700   -254689.85    74.343857    -254615.5    363.32856    4886.6131    16117.588 
   22800   -254688.25    70.621369   -254617.63    345.13625    4639.4248    16117.588 
   22900   -254689.94    71.526967   -254618.42    349.56203    4699.3708    16117.588 
   23000   -254689.65    73.342663    -254616.3    358.43559    4820.6149    16117.588 
   23100   -254687.44    73.695885   -254613.74    360.16183    4844.4756    16117.588 
   23200   -254687.62    72.671178   -254614.95    355.15395    4838.3887    16117.588 
   23300    -254686.5    69.617666   -254616.89    340.23102    4574.9331    16117.588 
   23400   -254689.45    71.843923   -254617.61    351.11104    4722.3858    16117.588 
   23500   -254689.16    71.664724    -254617.5    350.23527    4739.8111    16117.588 
   23600   -254689.52    73.902167   -254615.62    361.16996    4859.4401    16117.588 
   23700   -254686.43     73.93097    -254612.5    361.31072    4860.9117    16117.588 
   23800   -254686.33    73.075654   -254613.25    357.13068    4802.9288    16117.588 
   23900   -254688.07    72.995444   -254615.08    356.73868    4838.6249    16117.588 
   24000   -254688.16    72.094287   -254616.07     352.3346    4738.8313    16117.588 
   24100   -254687.25    70.064901   -254617.19    342.41672    4659.6536    16117.588 
   24200   -254685.27    68.996165   -254616.27    337.19366    4532.6787    16117.588 
   24300   -254685.14    71.788375   -254613.35    350.83957     4746.857    16117.588 
   24400   -254684.46    72.434563   -254612.03    353.99758      4791.37    16117.588 
   24500   -254688.33    72.998485   -254615.33    356.75354    4796.8232    16117.588 
   24600    -254687.9    69.856558   -254618.04    341.39851    4589.5717    16117.588 
   24700   -254689.97    72.882273   -254617.09     356.1856    4788.9021    16117.588 
   24800   -254689.98    71.930407   -254618.05     351.5337    4726.5053    16117.588 
   24900    -254689.5    69.424955   -254620.07    339.28922    4560.5188    16117.588 
   25000   -254688.57    69.998145   -254618.57    342.09047    4600.1992    16117.588 
   25100   -254687.44    72.476679   -254614.97    354.20341    4762.3087    16117.588 
   25200   -254688.76     73.47806   -254615.28    359.09729    4829.0963    16117.588 
   25300   -254690.63      74.4098   -254616.22    363.65083    4891.3764    16117.588 
   25400   -254689.82    70.791567   -254619.03    345.96803    4652.2021    16117.588 
   25500   -254690.09    69.150601   -254620.94    337.94841    4566.3402    16117.588 
   25600   -254690.37    70.730435   -254619.64    345.66927    4646.6423    16117.588 
   25700   -254690.71    72.340924   -254618.37    353.53995    4827.3278    16117.588 
   25800   -254688.05    71.091833   -254616.96    347.43547    4671.9319    16117.588 
   25900   -254687.42    71.812308   -254615.61    350.95653    4718.8711    16117.588 
   26000   -254688.04    72.725942   -254615.31    355.42159    4779.3736    16117.588 
   26100   -254690.47    72.367585    -254618.1    353.67025    4756.1707    16117.588 
   26200   -254692.14    71.899555   -254620.24    351.38292    4768.1681    16117.588 
   26300   -254690.44    70.542106    -254619.9    344.74888    4634.4778    16117.588 
   26400    -254686.5    69.098333    -254617.4    337.69297    4539.7077    16117.588 
   26500   -254686.94    71.094648   -254615.85    347.44923    4671.8058    16117.588 
   26600   -254687.76    71.179229   -254616.58    347.86259    4769.7079    16117.588 
   26700   -254688.41    72.068521   -254616.35    352.20868    4736.3919    16117.588 
   26800   -254688.06    72.889806   -254615.17    356.22241    4790.8084    16117.588 
   26900   -254687.24    73.119458   -254614.12    357.34475    4806.1776    16117.588 
   27000   -254685.71    72.498468   -254613.21    354.30989    4765.1875    16117.588 
   27100   -254687.71    72.374941   -254615.33     353.7062    4821.2807    16117.588 
   27200   -254688.51    70.373041   -254618.14    343.92264    4624.7862    16117.588 
   27300    -254689.2    70.580997   -254618.62    344.93895    4637.8129    16117.588 
   27400   -254688.77    70.693952   -254618.07    345.49097    4643.1018    16117.588 
   27500   -254687.31    72.609082    -254614.7    354.85048    4772.6225    16117.588 
   27600   -254685.69    72.998845   -254612.69     356.7553    4799.0097    16117.588 
   27700   -254687.66    73.402586   -254614.25    358.72844    4824.7873    16117.588 
   27800    -254689.4    72.935088   -254616.46    356.44371    4817.3593    16117.588 
   27900   -254687.92    70.813473   -254617.11    346.07509    4676.1332    16117.588 
   28000   -254689.72    70.548379   -254619.17    344.77954    4732.0304    16117.588 
   28100   -254689.93    68.744337   -254621.19    335.96294     4547.864    16117.588 
   28200   -254690.96    71.717561   -254619.24    350.49349    4714.2869    16117.588 
   28300   -254686.63    71.249921   -254615.38    348.20807    4683.0898    16117.588 
   28400   -254686.56    70.801892   -254615.75    346.01849    4652.9899    16117.588 
   28500   -254689.06    71.178132   -254617.88    347.85723    4677.7714    16117.588 
   28600   -254692.17    72.188267   -254619.98     352.7939    4745.4207    16117.588 
   28700   -254692.07    71.970516    -254620.1    351.72972    4730.6728    16117.588 
   28800   -254691.03    71.214958   -254619.82     348.0372    4720.5944    16117.588 
   28900   -254689.24    70.931786   -254618.31     346.6533     4685.978    16117.588 
   29000   -254687.98    71.694781   -254616.28    350.38216    4712.8336    16117.588 
   29100      -254687    72.215285   -254614.78    352.92594    4746.0806    16117.588 
   29200   -254687.19    71.241508   -254615.95    348.16696    4793.6065    16117.588 
   29300   -254688.08     68.79697   -254619.28    336.22017    4520.3717    16117.588 
   29400   -254689.35    69.404703   -254619.94    339.19024     4587.883    16117.588 
   29500   -254687.82    69.977584   -254617.84    341.98998    4626.9018    16117.588 
   29600      -254691    73.910058   -254617.09    361.20852     4856.728    16117.588 
   29700   -254688.87    72.123175   -254616.75    352.47578    4740.4448    16117.588 
   29800   -254687.42    72.014011   -254615.41    351.94228    4733.3847    16117.588 
   29900   -254687.49    73.326621   -254614.17    358.35719    4821.0129    16117.588 
   30000   -254687.49    72.445206   -254615.04    354.04959    4833.9153    16117.588 
   30100   -254689.13    70.731148   -254618.39    345.67276    4648.4233    16117.588 
   30200   -254691.32    72.464846   -254618.85    354.14557    4816.7544    16117.588 
   30300   -254690.96    73.789999   -254617.17    360.62178    4851.7374    16117.588 
   30400   -254686.39    70.876291   -254615.52    346.38209    4736.9879    16117.588 
   30500   -254687.06    75.308988   -254611.75    368.04528     4980.144    16117.588 
   30600   -254686.92    73.765571   -254613.16    360.50239    4849.8475    16117.588 
   30700   -254687.52    72.723436    -254614.8    355.40934    4780.3437    16117.588 
   30800   -254688.08    72.033601   -254616.04    352.03802    4766.4596    16117.588 
   30900   -254688.78     71.75068   -254617.03    350.65535    4715.3434    16117.588 
   31000   -254689.93    70.301162   -254619.62    343.57136    4647.8633    16117.588 
   31100   -254690.71    69.514264    -254621.2    339.72568    4569.1561    16117.588 
   31200   -254689.54    72.802393   -254616.74    355.79521    4811.7128    16117.588 
   31300   -254688.06    72.466101   -254615.59    354.15171    4764.0158    16117.588 
   31400      -254688    70.527475   -254617.47    344.67738    4634.5943    16117.588 
   31500   -254687.22    69.499949   -254617.72    339.65572    4566.8239    16117.588 
   31600   -254690.05    74.337621   -254615.72    363.29808    4887.0426    16117.588 
   31700   -254687.89    73.677848   -254614.21    360.07368    4843.4436    16117.588 
   31800    -254685.9    70.970886   -254614.93    346.84439    4700.2687    16117.588 
   31900   -254690.59    72.270365   -254618.32    353.19512    4751.0575    16117.588 
   32000   -254689.65    70.332336   -254619.32    343.72371    4621.5238    16117.588 
   32100   -254689.34    71.389074   -254617.95    348.88813    4691.0352    16117.588 
   32200   -254688.58    73.118987   -254615.47    357.34245      4844.64    16117.588 
   32300   -254687.14    71.691346   -254615.44    350.36537    4711.9703    16117.588 
   32400   -254686.84     70.74195    -254616.1    345.72555     4649.397    16117.588 
   32500   -254688.36    71.273884   -254617.09    348.32518    4684.4343    16117.588 
   32600   -254693.59    73.193938   -254620.39    357.70875    4810.6465    16117.588 
   32700   -254691.57    69.690605   -254621.87    340.58748    4578.7291    16117.588 
   32800   -254688.86    69.359428    -254619.5    338.96897    4581.9662    16117.588 
   32900   -254689.84    72.476555   -254617.37     354.2028    4763.9158    16117.588 
   33000   -254689.94    73.495927   -254616.45    359.18461    4831.6104    16117.588 
   33100   -254689.32    72.621056    -254616.7    354.90899    4773.2309    16117.588 
   33200    -254690.4    70.330623   -254620.07    343.71534    4621.7765    16117.588 
   33300   -254691.14    70.470009   -254620.67    344.39653    4630.5779    16117.588 
   33400   -254689.23    70.247383   -254618.98    343.30853    4617.1206    16117.588 
   33500   -254689.04    70.318189   -254618.72    343.65457    4621.7955    16117.588 
   33600   -254689.06    70.786401   -254618.27    345.94279    4694.6845    16117.588 
   33700   -254688.36    70.125083   -254618.24    342.71083    4632.9026    16117.588 
   33800   -254687.88    70.840598   -254617.04    346.20765    4700.2125    16117.588 
   33900   -254686.01    72.938295   -254613.08    356.45938    4796.1873    16117.588 
   34000   -254685.03    72.344883   -254612.68     353.5593    4755.0974    16117.588 
   34100    -254685.4    71.434479   -254613.96    349.11003    4696.5513    16117.588 
   34200   -254687.99    72.975991   -254615.02    356.64361    4797.3102    16117.588 
   34300   -254689.52    72.991619   -254616.53    356.71999    4799.5469    16117.588 
   34400   -254688.45    70.384674   -254618.07    343.97949    4695.6419    16117.588 
   34500   -254689.19    71.207426   -254617.99    348.00039    4679.9817    16117.588 
   34600   -254689.95     72.75184    -254617.2    355.54815    4782.0691    16117.588 
   34700   -254688.88    71.736877   -254617.14    350.58789    4715.1646    16117.588 
   34800   -254689.42    71.807531   -254617.61    350.93319    4719.6159    16117.588 
   34900    -254688.8    71.436101   -254617.37    349.11796    4693.5269    16117.588 
   35000   -254691.36    72.094625   -254619.26    352.33625    4738.1992    16117.588 
   35100   -254692.23     70.68697   -254621.55    345.45685    4710.4449    16117.588 
   35200   -254690.03    69.621746   -254620.41    340.25096    4574.5296    16117.588 
   35300   -254689.63    71.859913   -254617.77    351.18919    4721.9383    16117.588 
   35400   -254689.44    72.019938   -254617.42    351.97125    4787.8088    16117.588 
   35500   -254688.48    71.321173   -254617.16    348.55629    4714.8369    16117.588 
   35600   -254690.01    73.528477   -254616.49    359.34369    4833.6994    16117.588 
   35700   -254689.69    72.091071    -254617.6    352.31889    4738.4271    16117.588 
   35800   -254687.96    69.331308   -254618.63    338.83155    4555.3653    16117.588 
   35900   -254689.24    71.612073   -254617.62    349.97796    4706.4916    16117.588 
   36000   -254690.43    73.340031   -254617.09    358.42272     4821.598    16117.588 
   36100   -254690.38    72.067947   -254618.31    352.20587    4737.8753    16117.588 
   36200   -254690.22    67.420213    -254622.8    329.49177    4428.1992    16117.588 
   36300   -254690.88    69.146471   -254621.73    337.92823    4620.1444    16117.588 
   36400   -254689.43    70.897481   -254618.54    346.48565    4660.8651    16117.588 
   36500   -254687.77    70.842231   -254616.93    346.21564    4655.5495    16117.588 
   36600   -254689.87    73.112041   -254616.76    357.30851    4806.6093    16117.588 
   36700   -254690.12     71.13549   -254618.98    347.64883    4675.7953    16117.588 
   36800   -254690.54    69.662132   -254620.87    340.44833    4578.3045    16117.588 
   36900   -254690.94    67.236394    -254623.7    328.59342    4416.7245    16117.588 
   37000   -254690.36    69.895057   -254620.47    341.58666    4593.5846    16117.588 
   37100   -254688.91    71.563903   -254617.35    349.74255    4751.2238    16117.588 
   37200   -254689.42    73.131503   -254616.29    357.40362    4807.8691    16117.588 
   37300   -254690.74    73.015209   -254617.73    356.83528    4800.8099    16117.588 
   37400   -254689.73    69.688929   -254620.04    340.57929    4580.7662    16117.588 
   37500    -254689.5    68.959568   -254620.54     337.0148    4559.6053    16117.588 
   37600   -254687.56    70.827895   -254616.73    346.14557    4657.2042    16117.588 
   37700   -254688.07    73.000143   -254615.07    356.76164     4800.514    16117.588 
   37800   -254686.12    70.785401   -254615.34     345.9379     4653.386    16117.588 
   37900   -254686.51    72.916933   -254613.59    356.35498    4794.9765    16117.588 
   38000   -254685.37     72.79858   -254612.57    355.77658    4805.7864    16117.588 
   38100    -254686.3    72.485356   -254613.82    354.24581    4829.4284    16117.588 
   38200   -254687.37    70.293404   -254617.08    343.53344    4619.1977    16117.588 
   38300    -254688.4    71.657852   -254616.75    350.20169    4708.2229    16117.588 
   38400   -254689.12    73.551963   -254615.57    359.45846    4883.2299    16117.588 
   38500   -254688.18    70.029005   -254618.15    342.24129    4671.4831    16117.588 
   38600   -254689.81    69.015898   -254620.79     337.2901    4535.7639    16117.588 
   38700   -254690.13    70.345357   -254619.78    343.78734    4623.9205    16117.588 
   38800   -254686.81    69.754073   -254617.06    340.89766    4653.0933    16117.588 
   38900   -254687.78    72.099683   -254615.68    352.36098    4739.9399    16117.588 
   39000      -254688    73.145619   -254614.86    357.47261    4810.2907    16117.588 
   39100   -254686.79    71.978506   -254614.81    351.76877    4732.2354    16117.588 
   39200   -254689.15    72.586021   -254616.57    354.73778    4772.3929    16117.588 
   39300   -254689.87     69.84487   -254620.02     341.3414    4590.7074    16117.588 
   39400   -254692.11    71.998071   -254620.11    351.86438    4733.5419    16117.588 
   39500   -254689.08    71.328694   -254617.75    348.59305    4689.0714    16117.588 
   39600   -254688.22    72.585451   -254615.64    354.73499    4771.3063    16117.588 
   39700   -254686.85    71.095114   -254615.75    347.45151    4672.8855    16117.588 
   39800   -254687.19    71.013028   -254616.18    347.05034    4664.9423    16117.588 
   39900   -254689.79    71.131259   -254618.66    347.62815    4675.0015    16117.588 
   40000   -254690.95    69.860036   -254621.09    341.41551    4591.9936    16117.588 
   40100   -254691.53    70.139032   -254621.39      342.779    4649.1447    16117.588 
   40200   -254691.04    73.605064   -254617.43    359.71797     4840.854    16117.588 
   40300   -254687.15    71.096887   -254616.05    347.46017    4672.6143    16117.588 
   40400   -254690.83    74.795575   -254616.04    365.53617    4989.9089    16117.588 
   40500   -254689.74    70.992105   -254618.74    346.94809     4667.056    16117.588 
   40600      -254690    69.347045   -254620.65    338.90845    4555.9283    16117.588 
   40700   -254690.55    71.166122   -254619.38    347.79853    4708.7742    16117.588 
   40800    -254689.6    72.076653   -254617.52    352.24842    4829.9381    16117.588 
   40900   -254688.66    71.062417    -254617.6    347.29171    4695.9262    16117.588 
   41000   -254691.81    73.242959   -254618.57    357.94832     4816.323    16117.588 
   41100   -254691.11    69.308028    -254621.8    338.71777    4555.2147    16117.588 
   41200   -254692.22    67.779606   -254624.44    331.24817    4453.8549    16117.588 
   41300   -254692.58    71.305342   -254621.28    348.47892    4710.6717    16117.588 
   41400   -254691.07    72.383036   -254618.69    353.74576    4759.2921    16117.588 
   41500    -254690.6    73.409535   -254617.19     358.7624     4852.364    16117.588 
   41600   -254688.87    71.428628   -254617.44    349.08144     4695.097    16117.588 
   41700    -254691.2    70.193481   -254621.01    343.04511    4613.7177    16117.588 
   41800   -254690.51    69.028393   -254621.48    337.35116    4535.6755    16117.588 
   41900   -254690.71    71.933238   -254618.78    351.54754    4753.7186    16117.588 
   42000   -254689.37    71.966966    -254617.4    351.71237    4730.5332    16117.588 
   42100   -254690.41    73.437762   -254616.97    358.90035    4827.5623    16117.588 
   42200   -254689.71    71.232039   -254618.48    348.12068    4741.3022    16117.588 
   42300   -254691.43    69.620095   -254621.81    340.24289    4574.4065    16117.588 
   42400   -254690.26    69.478634   -254620.78    339.55155    4599.9195    16117.588 
   42500    -254687.8    69.641202   -254618.16    340.34604     4656.593    16117.588 
   42600   -254688.55    71.566783   -254616.98    349.75662     4703.673    16117.588 
   42700   -254685.94    70.548114   -254615.39    344.77825    4635.5342    16117.588 
   42800   -254691.18    74.181189      -254617    362.53358    4877.5656    16117.588 
   42900   -254690.46    70.674756   -254619.79    345.39716    4645.0606    16117.588 
   43000   -254689.72    69.588535   -254620.13    340.08865    4573.3088    16117.588 
   43100   -254690.18    71.663415   -254618.51    350.22887     4709.742    16117.588 
   43200   -254689.49    73.437638   -254616.05    358.89974    4827.7338    16117.588 
   43300   -254686.31    72.189016   -254614.12    352.79756    4744.3043    16117.588 
   43400   -254687.86    72.419208   -254615.44    353.92254    4759.4233    16117.588 
   43500   -254689.36    70.182986   -254619.18    342.99381    4665.5257    16117.588 
   43600   -254688.47    69.318103   -254619.15    338.76701    4581.6414    16117.588 
   43700   -254688.39    71.169521   -254617.22    347.81514    4699.9235    16117.588 
   43800   -254685.21    70.499695   -254614.71    344.54162    4632.5183    16117.588 
   43900   -254684.37     71.08842   -254613.29     347.4188    4672.4621    16117.588 
   44000    -254685.5    73.262766   -254612.23    358.04512    4815.9372    16117.588 
   44100   -254687.72    70.843099   -254616.87    346.21988    4681.4132    16117.588 
   44200    -254690.6    71.277624   -254619.32    348.34346     4684.025    16117.588 
   44300   -254689.39    70.486001    -254618.9    344.47469     4631.334    16117.588 
   44400   -254688.29    70.883313   -254617.41    346.41641    4658.6582    16117.588 
   44500   -254687.51    72.534649   -254614.97    354.48671    4767.9691    16117.588 
   44600    -254688.9    72.630175   -254616.27    354.95356    4775.6901    16117.588 
   44700   -254689.39     69.61163   -254619.78    340.20152    4576.4409    16117.588 
   44800   -254691.73    72.132805    -254619.6    352.52284    4890.0207    16117.588 
   44900   -254690.41    71.761117   -254618.65    350.70636    4718.2616    16117.588 
   45000   -254688.69    71.801018   -254616.89    350.90136    4720.5301    16117.588 
   45100   -254686.35    73.255314    -254613.1     358.0087    4863.5584    16117.588 
   45200   -254686.48    72.992557   -254613.49    356.72457    4800.4163    16117.588 
   45300   -254687.43    71.754643   -254615.68    350.67472    4717.3506    16117.588 
   45400   -254689.49    73.068434   -254616.42    357.09539    4803.6445    16117.588 
   45500   -254686.99    70.673519   -254616.32    345.39111    4641.2587    16117.588 
   45600   -254688.94    71.628869   -254617.32    350.06004    4735.9523    16117.588 
   45700   -254688.74    69.224041   -254619.51    338.30732     4550.343    16117.588 
   45800   -254688.54    68.044432   -254620.49    332.54241    4498.5244    16117.588 
   45900   -254687.97    71.671299    -254616.3     350.2674     4746.533    16117.588 
   46000   -254688.76    73.544767   -254615.22     359.4233    4894.6445    16117.588 
   46100   -254689.35    73.534005   -254615.81     359.3707    4898.0575    16117.588 
   46200   -254690.04    71.559516   -254618.48    349.72111      4702.46    16117.588 
   46300   -254690.07    71.420572   -254618.65    349.04207    4750.5705    16117.588 
   46400   -254685.26    70.917022   -254614.34    346.58115    4663.5954    16117.588 
   46500    -254687.6    73.605427      -254614    359.71975    4892.3999    16117.588 
   46600   -254688.97    72.566085   -254616.41    354.64034    4771.7147    16117.588 
   46700   -254689.53    72.262973   -254617.27    353.15899    4786.7806    16117.588 
   46800   -254689.84    71.536903   -254618.31    349.61059    4702.5511    16117.588 
   46900   -254688.33    67.334578   -254620.99    329.07325    4489.0587    16117.588 
   47000   -254691.36    68.044018   -254623.31    332.54039    4470.7931    16117.588 
   47100   -254690.55    69.032415   -254621.52    337.37082    4578.8604    16117.588 
   47200   -254689.07    70.644961   -254618.43    345.25155    4644.2603    16117.588 
   47300   -254688.89    71.992252    -254616.9    351.83594     4731.305    16117.588 
   47400   -254688.72    72.130957   -254616.59    352.51381    4770.1827    16117.588 
   47500   -254688.53    72.423263   -254616.11    353.94235    4761.5641    16117.588 
   47600   -254690.93    72.311132   -254618.62    353.39435    4753.2979    16117.588 
   47700   -254690.32     69.16813   -254621.15    338.03408    4546.0799    16117.588 
   47800   -254689.11    69.855577   -254619.26    341.39372    4591.5541    16117.588 
   47900   -254688.32    71.429517   -254616.89    349.08578     4694.705    16117.588 
   48000   -254686.71    70.980712   -254615.73    346.89241    4664.7173    16117.588 
   48100   -254689.16     72.79189   -254616.37    355.74388    4786.3967    16117.588 
   48200   -254689.15    70.461608   -254618.69    344.35548    4631.2029    16117.588 
   48300   -254691.25    70.343181   -254620.91    343.77671    4647.3596    16117.588 
   48400   -254692.97      70.1937   -254622.77    343.04617    4613.7724    16117.588 
   48500   -254692.36    70.653731    -254621.7    345.29441    4667.3395    16117.588 
   48600   -254691.77    73.567601    -254618.2    359.53489    4837.3776    16117.588 
   48700   -254688.76     71.32059   -254617.44    348.55344    4688.3207    16117.588 
   48800   -254688.44    70.567498   -254617.87    344.87298    4637.8899    16117.588 
   48900   -254688.73    69.136883   -254619.59    337.88137     4623.628    16117.588 
   49000    -254691.6    70.097119    -254621.5    342.57417    4606.6784    16117.588 
   49100   -254692.85    71.125794   -254621.72    347.60145    4675.6273    16117.588 
   49200   -254689.23    71.259868   -254617.97    348.25668     4736.444    16117.588 
   49300   -254689.44    73.179156   -254616.26     357.6365    4810.7802    16117.588 
   49400   -254689.25    72.708927   -254616.54    355.33843    4814.2223    16117.588 
   49500   -254688.81    70.458392   -254618.35    344.33976    4686.4956    16117.588 
   49600   -254689.99    68.993787   -254620.99    337.18204    4564.3401    16117.588 
   49700    -254691.3    69.343409   -254621.95    338.89069    4698.5588    16117.588 
   49800   -254690.58    71.641346   -254618.94    350.12102    4708.0109    16117.588 
   49900   -254691.23    73.952435   -254617.28    361.41562    4860.8409    16117.588 
   50000   -254691.44    73.326027   -254618.12    358.35429    4820.2066    16117.588 
   50100   -254689.18    69.781666   -254619.39    341.03251    4617.3698    16117.588 
   50200   -254689.15     72.87591   -254616.28     356.1545    4789.5181    16117.588 
   50300   -254686.06    72.322522   -254613.74    353.45002    4754.2406    16117.588 
   50400   -254687.26     73.17675   -254614.09    357.62475    4810.1859    16117.588 
   50500    -254688.3    71.315031   -254616.99    348.52627    4687.3696    16117.588 
   50600   -254688.18    69.726074   -254618.45    340.76082    4581.7573    16117.588 
   50700   -254691.27    73.648283   -254617.62    359.92919    4841.4203    16117.588 
   50800   -254688.41    70.454801   -254617.96    344.32221    4630.1305    16117.588 
   50900   -254690.38    72.620055   -254617.76     354.9041    4774.4421    16117.588 
   51000    -254686.7    71.173289   -254615.53    347.83356     4678.594    16117.588 
   51100   -254686.52    73.614153   -254612.91     359.7624    4878.9374    16117.588 
   51200   -254688.36    73.357422      -254615    358.50772    4821.8117    16117.588 
   51300   -254689.32    71.077152   -254618.25    347.36372    4781.0982    16117.588 
   51400   -254690.54    72.171775   -254618.37     352.7133     4740.397    16117.588 
   51500   -254688.81    71.413225    -254617.4    349.00616    4691.2461    16117.588 
   51600    -254688.4    72.499166    -254615.9     354.3133    4764.5624    16117.588 
   51700   -254687.52    73.491548   -254614.03    359.16321    4830.0261    16117.588 
   51800   -254688.47    72.272903   -254616.19    353.20752    4835.3547    16117.588 
   51900   -254689.34    70.734034    -254618.6    345.68686    4648.2723    16117.588 
   52000   -254689.15    70.494486   -254618.66    344.51616    4630.7145    16117.588 
   52100   -254687.03    69.947246   -254617.08    341.84172    4595.0475    16117.588 
   52200   -254686.64    73.572549   -254613.07    359.55907    4861.0643    16117.588 
   52300   -254684.87    70.708884   -254614.16    345.56395    4644.1328    16117.588 
   52400   -254688.39    72.852039   -254615.54    356.03784    4876.4642    16117.588 
   52500   -254687.74    70.809244   -254616.93    346.05442    4682.4649    16117.588 
   52600   -254690.46     74.84024   -254615.62    365.75445    4989.4232    16117.588 
   52700   -254684.53    72.841295   -254611.69    355.98533    4901.5423    16117.588 
   52800   -254685.44    73.696441   -254611.74    360.16455    4845.7803    16117.588 
   52900   -254688.18    72.900441   -254615.28    356.27439    4792.2239    16117.588 
   53000   -254688.06    71.378333   -254616.68    348.83564    4692.0827    16117.588 
   53100    -254685.8    69.777701   -254616.02    341.01313    4585.7839    16117.588 
   53200   -254686.97    72.761559   -254614.21    355.59565    4821.0225    16117.588 
   53300   -254686.27    73.410403   -254612.86    358.76664    4904.0076    16117.588 
   53400      -254685    70.978297   -254614.02    346.88061    4752.3952    16117.588 
   53500   -254688.01    71.895112   -254616.11    351.36121     4726.203    16117.588 
   53600   -254687.29    70.380546   -254616.91    343.95932    4693.8259    16117.588 
   53700    -254688.5     71.09643    -254617.4    347.45794    4673.3141    16117.588 
   53800   -254687.59    69.594259      -254618    340.11663    4572.8808    16117.588 
   53900   -254692.23    72.261013   -254619.97    353.14942    4749.4638    16117.588 
   54000   -254691.68    71.623182   -254620.05    350.03225    4707.9473    16117.588 
   54100   -254690.66    73.367455   -254617.29    358.55675    4863.9312    16117.588 
   54200   -254688.09    72.324859   -254615.77    353.46144    4788.4964    16117.588 
   54300   -254689.49    74.020281   -254615.47     361.7472    4924.9017    16117.588 
   54400   -254688.91     71.33899   -254617.57    348.64336     4727.931    16117.588 
   54500   -254689.88    68.636769   -254621.24    335.43724    4510.7359    16117.588 
   54600   -254691.39    71.472293   -254619.91    349.29483    4696.7304    16117.588 
   54700   -254690.99    73.206696   -254617.79     357.7711    4813.4457    16117.588 
   54800   -254689.84    72.156019   -254617.69     352.6363     4779.366    16117.588 
   54900   -254689.44    70.183537   -254619.26    342.99651    4648.0081    16117.588 
   55000   -254692.03    69.346819   -254622.68    338.90735    4558.6514    16117.588 
   55100   -254693.85    68.909668   -254624.94    336.77094    4565.9513    16117.588 
   55200   -254692.96     71.30253   -254621.66    348.46518    4687.8592    16117.588 
   55300   -254691.41     72.22978   -254619.18    352.99678    4749.0132    16117.588 
   55400   -254689.33    72.261792   -254617.07    353.15322    4750.7784    16117.588 
   55500   -254687.19    70.547307   -254616.64     344.7743    4637.0465    16117.588 
   55600   -254689.54    74.068219   -254615.47    361.98148    4870.6558    16117.588 
   55700   -254686.53    70.581608   -254615.94    344.94194    4639.1114    16117.588 
   55800   -254690.79     71.45234   -254619.33    349.19732    4729.2153    16117.588 
   55900   -254692.73    72.409537   -254620.32    353.87527    4760.6538    16117.588 
   56000   -254690.28    71.549867   -254618.73    349.67395     4702.637    16117.588 
   56100   -254692.22    75.298473   -254616.92     367.9939    4951.6445    16117.588 
   56200   -254692.17    73.836136   -254618.33    360.84726    4891.6303    16117.588 
   56300   -254692.34    73.145044    -254619.2    357.46979    4807.1017    16117.588 
   56400   -254692.15      71.6095   -254620.54    349.96538    4705.6258    16117.588 
   56500   -254689.28    68.447352   -254620.84    334.51153    4554.7868    16117.588 
   56600   -254688.73    70.869633   -254617.86    346.34955    4656.6779    16117.588 
   56700   -254687.72    71.731376   -254615.99    350.56101    4714.7154    16117.588 
   56800   -254689.05    73.346806    -254615.7    358.45583    4822.6828    16117.588 
   56900      -254688    70.884626   -254617.12    346.42283    4659.6207    16117.588 
   57000   -254689.51    69.850493   -254619.66    341.36887    4590.1888    16117.588 
   57100   -254690.49    70.862874   -254619.63    346.31652    4705.2669    16117.588 
   57200    -254688.1    70.829499   -254617.28    346.15341    4655.7087    16117.588 
   57300   -254689.33     73.32809      -254616    358.36437    4855.4077    16117.588 
   57400   -254689.82    72.879317   -254616.94    356.17115    4790.5407    16117.588 
   57500   -254690.71    69.591116   -254621.12    340.10126    4573.7602    16117.588 
   57600   -254688.73    68.499721   -254620.23    334.76747    4546.4272    16117.588 
   57700    -254688.3    70.624227   -254617.68    345.15022    4641.9886    16117.588 
   57800    -254689.9     73.56977   -254616.33    359.54549    4875.5229    16117.588 
   57900   -254691.22    73.666945   -254617.55     360.0204    4843.7034    16117.588 
   58000   -254690.37    70.960562   -254619.41    346.79394    4664.1775    16117.588 
   58100   -254690.67    70.245532   -254620.42    343.29949    4687.3093    16117.588 
   58200    -254689.1    70.817269   -254618.28    346.09364    4654.8395    16117.588 
   58300   -254686.91    72.873865   -254614.04    356.14451    4790.5875    16117.588 
   58400   -254687.85    73.123292   -254614.72    357.36349    4876.4283    16117.588 
   58500   -254687.66    71.191371   -254616.47    347.92193    4726.6475    16117.588 
   58600   -254689.31    70.109976    -254619.2      342.637    4606.6762    16117.588 
   58700   -254690.71    71.517302   -254619.19     349.5148    4728.7269    16117.588 
   58800   -254689.52     72.62603   -254616.89     354.9333    4774.5885    16117.588 
   58900   -254688.68    75.753528   -254612.93    370.21781    4982.1224    16117.588 
   59000    -254686.1    71.939113   -254614.16    351.57624    4774.3324    16117.588 
   59100    -254685.7    70.376767   -254615.33    343.94085    4625.7084    16117.588 
   59200   -254688.81    73.138683   -254615.67    357.43871    4807.1474    16117.588 
   59300   -254689.69     70.75606   -254618.93    345.79451    4650.1818    16117.588 
   59400   -254691.12     71.05812   -254620.06    347.27071    4669.9726    16117.588 
   59500   -254691.09    71.836192   -254619.25    351.07326    4720.3142    16117.588 
   59600   -254690.05    72.207422   -254617.85    352.88751    4743.3369    16117.588 
   59700   -254688.65    72.041961   -254616.61    352.07888    4734.2263    16117.588 
   59800   -254688.51     72.88803   -254615.62    356.21373    4790.0433    16117.588 
   59900    -254685.6    71.903003    -254613.7    351.39977    4880.6165    16117.588 
   60000   -254686.39     74.25095   -254612.14    362.87451    4880.1395    16117.588 
   60100   -254686.66    72.965812   -254613.69    356.59386    4795.9915    16117.588 
   60200   -254688.55    72.015723   -254616.53    351.95065    4732.8019    16117.588 
   60300   -254687.39    70.685934    -254616.7    345.45179    4644.6459    16117.588 
   60400   -254687.64    72.524346   -254615.12    354.43636    4791.3727    16117.588 
   60500   -254686.41    73.099428   -254613.31    357.24687    4804.9025    16117.588 
   60600   -254685.98    75.897404   -254610.08    370.92095     5029.288    16117.588 
   60700   -254684.06    72.290536   -254611.77     353.2937    4750.7955    16117.588 
   60800   -254687.09    72.526025   -254614.56    354.44457     4766.346    16117.588 
   60900   -254687.62    72.188429   -254615.44    352.79469    4770.9525    16117.588 
   61000   -254686.89    71.197316    -254615.7    347.95098     4677.681    16117.588 
   61100   -254684.68     70.39195   -254614.29    344.01505    4625.5011    16117.588 
   61200   -254683.63    72.756154   -254610.87    355.56924    4781.6502    16117.588 
   61300   -254683.91    73.082355   -254610.83    357.16343    4803.3578    16117.588 
   61400   -254683.13    69.662309   -254613.47     340.4492    4576.3015    16117.588 
   61500   -254685.61    71.387857   -254614.22    348.88219    4791.7417    16117.588 
   61600   -254686.62    70.954347   -254615.66    346.76356    4662.8336    16117.588 
   61700   -254689.33    72.788385   -254616.54    355.72675    4808.1574    16117.588 
   61800   -254687.37    72.090567   -254615.28    352.31642    4738.0947    16117.588 
   61900   -254687.12    73.241009   -254613.88    357.93879    4870.1637    16117.588 
   62000   -254689.35     72.29692   -254617.05     353.3249    4753.3937    16117.588 
   62100   -254689.81    71.275993   -254618.53    348.33549    4684.8991    16117.588 
   62200    -254688.2    71.043824   -254617.15    347.20085    4668.8539    16117.588 
   62300   -254686.61     71.56371   -254615.04     349.7416    4703.3234    16117.588 
   62400   -254683.52    71.886325   -254611.63    351.31827    4725.5592    16117.588 
   62500   -254683.93    73.587741   -254610.35    359.63332    4838.3809    16117.588 
   62600   -254685.63    75.046619   -254610.59    366.76305    4934.8179    16117.588 
   62700    -254686.5     71.94099   -254614.56    351.58542    4776.2124    16117.588 
   62800   -254688.18    70.651169   -254617.53    345.28189    4643.9554    16117.588 
   62900   -254687.99    69.984651      -254618    342.02452     4599.555    16117.588 
   63000   -254688.15    72.205309   -254615.94    352.87718    4848.7536    16117.588 
   63100   -254685.24    71.616084   -254613.63    349.99756    4706.2013    16117.588 
   63200   -254686.86    71.751076   -254615.11    350.65728    4746.7595    16117.588 
   63300   -254687.49    69.524531   -254617.96    339.77586    4567.8732    16117.588 
   63400   -254688.85     71.19208   -254617.65     347.9254    4727.2037    16117.588 
   63500      -254689    71.755668   -254617.25    350.67973    4715.2341    16117.588 
   63600    -254687.9    71.587955   -254616.31    349.86009    4734.5735    16117.588 
   63700   -254689.03    73.698739   -254615.33    360.17578    4846.0237    16117.588 
   63800   -254685.59    71.851178   -254613.74     351.1465    4721.1624    16117.588 
   63900   -254685.87    70.740556   -254615.13    345.71874    4647.9525    16117.588 
   64000   -254688.84    70.322572   -254618.51    343.67599    4652.2401    16117.588 
   64100   -254688.64    70.553351   -254618.09    344.80384    4783.5374    16117.588 
   64200   -254686.27     70.71994   -254615.55    345.61798    4648.6101    16117.588 
   64300   -254687.43    72.593268   -254614.84    354.77319    4772.4546    16117.588 
   64400   -254687.71    72.272887   -254615.44    353.20744    4855.9109    16117.588 
   64500   -254689.67    72.251786   -254617.42    353.10432    4795.5076    16117.588 
   64600   -254689.45    70.518664   -254618.93    344.63432      4632.23    16117.588 
   64700   -254689.45    70.440817   -254619.01    344.25387    4630.3972    16117.588 
   64800   -254687.58    69.490745   -254618.09    339.61074    4567.8162    16117.588 
   64900   -254687.55    72.783874   -254614.77    355.70471    4826.5399    16117.588 
   65000   -254684.66    71.014911   -254613.64    347.05954    4667.4491    16117.588 
   65100   -254685.89    71.513016   -254614.38    349.49385    4701.4884    16117.588 
   65200   -254687.53    70.292943   -254617.24    343.53119    4618.0597    16117.588 
   65300   -254690.13    71.371697   -254618.76     348.8032    4693.1439    16117.588 
   65400   -254688.09    71.659323   -254616.43    350.20887    4764.6685    16117.588 
   65500   -254687.65    74.489297   -254613.16    364.03935    4899.0097    16117.588 
   65600   -254687.14    72.686471   -254614.46    355.22869    4809.1004    16117.588 
   65700   -254689.75    72.668269   -254617.09    355.13973    4778.3964    16117.588 
   65800   -254691.66    72.943255   -254618.71    356.48362     4855.522    16117.588 
   65900   -254689.28    69.795531   -254619.48    341.10027    4666.8855    16117.588 
   66000   -254690.42    72.063404   -254618.36    352.18367    4770.9812    16117.588 
   66100   -254687.08    72.730048   -254614.35    355.44165     4805.525    16117.588 
   66200   -254689.12    75.063412   -254614.06    366.84512    4936.6166    16117.588 
   66300   -254688.75    70.551827    -254618.2    344.79639    4637.7396    16117.588 
   66400   -254692.11    73.183807   -254618.93    357.65924    4855.5004    16117.588 
   66500   -254691.62    71.016498    -254620.6     347.0673    4698.6422    16117.588 
   66600   -254688.33    69.876678   -254618.46    341.49685    4591.9771    16117.588 
   66700   -254690.25    73.884246   -254616.37    361.08238    4858.5337    16117.588 
   66800    -254687.3    71.269689   -254616.03    348.30468    4685.2221    16117.588 
   66900    -254688.6    71.816659   -254616.79     350.9778    4722.5041    16117.588 
   67000   -254689.39    70.226243   -254619.16    343.20522    4616.4992    16117.588 
   67100   -254690.44    69.947759   -254620.49    341.84423    4658.0132    16117.588 
   67200   -254688.24    70.059763   -254618.18     342.3916    4605.6809    16117.588 
   67300   -254686.76    72.130519   -254614.63    352.51167    4742.5142    16117.588 
   67400   -254688.17    73.126033   -254615.05    357.37689    4951.7889    16117.588 
   67500    -254686.2    69.947809   -254616.25    341.84447    4645.5713    16117.588 
   67600   -254686.44    69.798334   -254616.64    341.11397    4587.8854    16117.588 
   67700   -254686.75    72.645487   -254614.11    355.02839      4806.27    16117.588 
   67800   -254684.82    73.497166   -254611.32    359.19066    4832.6086    16117.588 
   67900   -254687.56    75.216204   -254612.34    367.59184    4945.7994    16117.588 
   68000   -254686.87    71.267267    -254615.6    348.29284    4685.8644    16117.588 
   68100   -254688.74      71.6623   -254617.08    350.22342    4770.8942    16117.588 
   68200    -254689.5    71.429146   -254618.08    349.08397    4696.3564    16117.588 
   68300   -254690.23    71.315959   -254618.92    348.53081    4726.5343    16117.588 
   68400   -254688.99    69.211991   -254619.78    338.24843    4549.8859    16117.588 
   68500   -254688.78    69.784179   -254618.99    341.04479    4587.7416    16117.588 
   68600   -254688.41    73.036999   -254615.37    356.94177    4803.2183    16117.588 
   68700   -254686.72    72.003236   -254614.71    351.88963    4763.4912    16117.588 
   68800   -254686.81    71.178393   -254615.63     347.8585    4680.1943    16117.588 
   68900   -254691.21    71.912803   -254619.29    351.44766    4728.8663    16117.588 
   69000   -254691.59    71.265196   -254620.32    348.28272    4686.0319    16117.588 
   69100   -254691.72    71.630425   -254620.09    350.06765    4709.6662    16117.588 
   69200   -254690.73    71.095856   -254619.64    347.45513    4673.7619    16117.588 
   69300   -254689.03    71.662603   -254617.37     350.2249    4711.6711    16117.588 
   69400   -254683.43    69.535287   -254613.89    339.82842     4571.084    16117.588 
   69500   -254688.09     74.05948   -254614.03    361.93877    4871.2586    16117.588 
   69600   -254689.95     73.52544   -254616.42    359.32884    4892.6963    16117.588 
   69700   -254687.07    69.075002      -254618    337.57895    4594.9254    16117.588 
   69800   -254687.33     69.50043   -254617.83    339.65807    4622.2178    16117.588 
   69900   -254688.72    72.014728   -254616.71    351.94579    4770.0676    16117.588 
   70000   -254687.82    72.574677   -254615.25    354.68233    4772.2617    16117.588 
   70100   -254689.22    74.609231   -254614.61    364.62548    4938.7638    16117.588 
   70200   -254690.82    72.529691   -254618.29    354.46248     4792.289    16117.588 
   70300   -254689.79    69.854204   -254619.94    341.38701    4614.4122    16117.588 
   70400   -254689.25     70.37608   -254618.88    343.93749    4670.3477    16117.588 
   70500   -254687.69    71.596603    -254616.1    349.90235    4706.3955    16117.588 
   70600   -254688.63    72.903401   -254615.73    356.28885    4793.1094    16117.588 
   70700   -254688.48    70.950882   -254617.53    346.74663    4689.5558    16117.588 
   70800   -254689.53     71.17565   -254618.35     347.8451    4717.4157    16117.588 
   70900   -254690.36    71.938501   -254618.42    351.57326    4728.6298    16117.588 
   71000   -254691.24     73.09176   -254618.15    357.20939    4805.4427    16117.588 
   71100   -254690.25    71.524897   -254618.73    349.55191    4702.1217    16117.588 
   71200   -254690.57     70.66712    -254619.9    345.35984    4644.6124    16117.588 
   71300   -254690.27    71.062205    -254619.2    347.29068    4671.2903    16117.588 
   71400   -254689.89    72.723333   -254617.16    355.40884    4782.9382    16117.588 
   71500   -254687.68    72.587805    -254615.1    354.74649    4773.1158    16117.588 
   71600   -254689.76     74.29669   -254615.46    363.09805    4887.1541    16117.588 
   71700   -254690.56      70.9666    -254619.6    346.82344    4698.4837    16117.588 
   71800   -254690.52    70.133899   -254620.38    342.75392    4638.8902    16117.588 
   71900    -254689.7    71.126151   -254618.57    347.60319     4703.035    16117.588 
   72000   -254689.37    72.569655    -254616.8    354.65779    4772.7593    16117.588 
   72100   -254686.95    71.584148   -254615.36    349.84149    4706.8862    16117.588 
   72200   -254685.19    73.768887   -254611.43     360.5186    4883.0514    16117.588 
   72300   -254688.52    75.792783   -254612.73    370.40966    5052.9821    16117.588 
   72400    -254686.2    70.725392   -254615.48    345.64463    4649.1816    16117.588 
   72500   -254686.41    69.910495    -254616.5    341.66211    4595.0822    16117.588 
   72600   -254688.29    70.882892    -254617.4    346.41435    4659.2236    16117.588 
   72700   -254688.72    71.068065   -254617.65    347.31932    4671.2704    16117.588 
   72800   -254691.62    72.627605   -254618.99      354.941    4774.4431    16117.588 
   72900   -254689.75    69.933715   -254619.82    341.77559    4745.0808    16117.588 
   73000    -254688.4    68.522104   -254619.88    334.87686    4502.4123    16117.588 
   73100   -254687.36    70.474298   -254616.89     344.4175    4630.8076    16117.588 
   73200   -254688.14    73.055902   -254615.08    357.03415    4832.9057    16117.588 
   73300   -254688.85    72.731651   -254616.12    355.44949    4804.5336    16117.588 
   73400   -254691.02    72.212003    -254618.8     352.9099    4787.0033    16117.588 
   73500   -254689.99    70.271412   -254619.72    343.42596    4618.2276    16117.588 
   73600   -254689.13    70.681893   -254618.45    345.43204    4699.5193    16117.588 
   73700    -254689.6    72.847517   -254616.76    356.01574    4789.7828    16117.588 
   73800   -254689.16    73.060073    -254616.1    357.05453    4805.0748    16117.588 
   73900   -254688.14    71.494136   -254616.65    349.40159    4700.9081    16117.588 
   74000   -254689.38    72.150318   -254617.23    352.60843    4774.6985    16117.588 
   74100    -254686.9    70.108585   -254616.79    342.63021    4608.3831    16117.588 
   74200    -254688.7     73.82097   -254614.88    360.77314    4883.9099    16117.588 
   74300   -254685.47    72.596875   -254612.87    354.79082    4772.8284    16117.588 
   74400   -254687.68    75.622034   -254612.06    369.57518     4972.403    16117.588 
   74500   -254685.98    71.035182   -254614.94    347.15861    4669.6315    16117.588 
   74600   -254687.64    70.161288   -254617.48    342.88777    4636.4666    16117.588 
   74700   -254689.86     72.05146   -254617.81     352.1253    4884.0461    16117.588 
   74800   -254688.47    72.636528   -254615.84    354.98461    4810.9972    16117.588 
   74900    -254687.1    74.214308   -254612.89    362.69544     4933.293    16117.588 
   75000   -254686.77    73.553224   -254613.22    359.46462    4836.8939    16117.588 
   75100   -254690.27    72.636759   -254617.63    354.98574    4776.4211    16117.588 
   75200      -254688    69.731587   -254618.27    340.78776    4583.6291    16117.588 
   75300   -254687.67    71.616551   -254616.05    349.99984    4752.1386    16117.588 
   75400    -254685.2    71.272156   -254613.93    348.31674    4686.6875    16117.588 
   75500   -254686.27    71.648531   -254614.62    350.15613    4711.5281    16117.588 
   75600   -254688.47    70.482925   -254617.99    344.45966    4633.4814    16117.588 
   75700   -254688.98     70.61168   -254618.37     345.0889    4677.6723    16117.588 
   75800   -254688.08    71.156619   -254616.92    347.75209     4709.625    16117.588 
   75900   -254688.08    72.668453   -254615.41    355.14063    4779.6127    16117.588 
   76000   -254686.82    70.829414   -254615.99      346.153    4701.7164    16117.588 
   76100   -254688.36    70.189871   -254618.17    343.02746    4615.4839    16117.588 
   76200   -254691.67    71.101643   -254620.57    347.48342    4676.2146    16117.588 
   76300   -254691.13     71.64488   -254619.49    350.13829    4711.6035    16117.588 
   76400   -254689.07    72.732369   -254616.34      355.453    4824.5663    16117.588 
   76500   -254686.71    71.644523   -254615.06    350.13655    4711.3517    16117.588 
   76600   -254685.59    70.926558   -254614.66    346.62775     4659.139    16117.588 
   76700    -254686.1    72.737931   -254613.36    355.48018    4822.5676    16117.588 
   76800    -254686.7    73.403947   -254613.29    358.73509    4828.0325    16117.588 
   76900   -254687.07    69.493799   -254617.58    339.62566    4568.6507    16117.588 
   77000   -254688.89    71.556952   -254617.33    349.70857    4705.1332    16117.588 
   77100   -254687.77    73.310125   -254614.46    358.27657     4820.969    16117.588 
   77200   -254687.81    72.671351   -254615.14    355.15479    4857.2756    16117.588 
   77300   -254689.96    71.909605   -254618.05    351.43204    4727.3753    16117.588 
   77400   -254689.64    70.860476   -254618.78     346.3048    4688.6597    16117.588 
   77500   -254689.31     71.02236   -254618.28    347.09595    4667.3525    16117.588 
   77600    -254688.7    72.225143   -254616.47    352.97412     4747.608    16117.588 
   77700   -254686.45    71.921232   -254614.53    351.48886    4727.6084    16117.588 
   77800   -254686.84    71.732496   -254615.11    350.56648    4961.6083    16117.588 
   77900   -254689.32    70.634715   -254618.69    345.20148    4677.1039    16117.588 
   78000   -254690.68    71.203987   -254619.48    347.98359    4681.4465    16117.588 
   78100   -254689.33    72.400572   -254616.93    353.83146    4760.1359    16117.588 
   78200   -254688.32    72.154098   -254616.16    352.62691    4743.6037    16117.588 
   78300    -254687.3    71.517099   -254615.78    349.51381    4740.3987    16117.588 
   78400   -254687.46     72.36583    -254615.1    353.66167    4757.1357    16117.588 
   78500   -254687.15    70.552851    -254616.6    344.80139    4637.9971    16117.588 
   78600   -254689.18    71.254142   -254617.92     348.2287    4684.8541    16117.588 
   78700   -254690.22    71.793761   -254618.43    350.86589    4719.8777    16117.588 
   78800   -254690.74    71.478139   -254619.26    349.32341    4699.0546    16117.588 
   78900   -254690.32    70.421191    -254619.9    344.15796    4630.6039    16117.588 
   79000   -254688.34    71.724003   -254616.61    350.52497    4715.7918    16117.588 
   79100   -254687.75    72.645273   -254615.11    355.02735    4814.5131    16117.588 
   79200   -254686.62      70.7166   -254615.91    345.60166    4648.2766    16117.588 
   79300   -254688.41    70.589938   -254617.82    344.98265    4701.7472    16117.588 
   79400   -254689.31    68.662973   -254620.65    335.56531    4513.1347    16117.588 
   79500   -254691.61    70.244067   -254621.37    343.29233    4618.4483    16117.588 
   79600   -254689.24    71.317232   -254617.93    348.53703    4689.7351    16117.588 
   79700   -254688.28    73.276744      -254615    358.11343     4848.681    16117.588 
   79800   -254688.21    72.680101   -254615.53    355.19756    4777.7498    16117.588 
   79900   -254687.83    70.191363   -254617.64    343.03475    4643.2098    16117.588 
   80000    -254689.5    69.994741   -254619.51    342.07384    4624.7729    16117.588 
   80100   -254689.97    71.251965   -254618.72    348.21806    4683.9099    16117.588 
   80200   -254687.23    72.710688   -254614.52    355.34704    4779.3362    16117.588 
   80300   -254686.13    73.514137   -254612.62    359.27361    4834.3693    16117.588 
   80400   -254686.35    71.945506   -254614.41    351.60749    4790.5062    16117.588 
   80500   -254688.69    71.535441   -254617.16    349.60345    4703.9573    16117.588 
   80600   -254689.03    70.857586   -254618.17    346.29068     4658.811    16117.588 
   80700   -254687.51      70.1205   -254617.39    342.68843    4683.1532    16117.588 
   80800   -254689.09     75.08259   -254614.01    366.93884    4939.1616    16117.588 
   80900   -254687.25    72.081797   -254615.16    352.27356    4739.2608    16117.588 
   81000   -254687.85     70.54895    -254617.3    344.78233    4637.7586    16117.588 
   81100   -254688.69    71.255833   -254617.44    348.23696    4683.9569    16117.588 
   81200   -254689.52     71.87994   -254617.64    351.28706    4726.2182    16117.588 
   81300   -254689.21     71.84816   -254617.36    351.13175    4750.2397    16117.588 
   81400   -254689.43    73.055752   -254616.38    357.03341    4804.3116    16117.588 
   81500   -254686.93    72.366369   -254614.56     353.6643    4803.0151    16117.588 
   81600   -254687.68    72.101087   -254615.58    352.36784    4817.7059    16117.588 
   81700   -254688.19    69.927395   -254618.27    341.74471     4597.754    16117.588 
   81800   -254689.96    70.622283   -254619.34    345.14072    4720.5532    16117.588 
   81900   -254689.99    71.153627   -254618.83    347.73747    4704.7484    16117.588 
   82000   -254690.69    74.239861   -254616.45    362.82032    4883.9465    16117.588 
   82100   -254688.43    74.424022      -254614    363.72033    4922.7419    16117.588 
   82200    -254686.9    71.342318   -254615.56    348.65963    4693.2291    16117.588 
   82300   -254687.45    70.574993   -254616.87    344.90961    4641.9674    16117.588 
   82400   -254690.71    71.509008    -254619.2    349.47427    4735.0257    16117.588 
   82500   -254688.14    68.182594   -254619.96    333.21763    4483.5183    16117.588 
   82600   -254688.97    72.860246   -254616.11    356.07795    4793.6854    16117.588 
   82700   -254688.24    73.466211   -254614.77    359.03938    4916.8211    16117.588 
   82800   -254687.15    71.948024    -254615.2    351.61979    4770.9167    16117.588 
   82900   -254689.24    70.914934   -254618.32    346.57094    4768.1825    16117.588 
   83000   -254688.97    68.393814   -254620.58    334.24989    4496.9326    16117.588 
   83100   -254690.88    71.425893   -254619.45    349.06807    4697.7769    16117.588 
   83200      -254691    73.095598    -254617.9    357.22815    4807.4504    16117.588 
   83300   -254691.01    72.617808   -254618.39    354.89312    4776.0758    16117.588 
   83400      -254690    70.682791   -254619.32    345.43643    4677.4593    16117.588 
   83500   -254688.52    69.056568   -254619.47    337.48886    4564.5133    16117.588 
   83600    -254688.8    72.141763   -254616.66    352.56663    4744.3161    16117.588 
   83700   -254684.98    71.049002   -254613.93    347.22615    4727.3105    16117.588 
   83800   -254685.62    73.795459   -254611.82    360.64846     4854.771    16117.588 
   83900   -254684.35    71.839077   -254612.51    351.08735    4724.4231    16117.588 
   84000   -254686.84    70.371164   -254616.47    343.91347    4718.7139    16117.588 
   84100   -254687.06     70.67387   -254616.39    345.39283    4675.0599    16117.588 
   84200   -254688.47      72.1401   -254616.33     352.5585    4747.2013    16117.588 
   84300   -254687.85    71.249063    -254616.6    348.20388    4687.8022    16117.588 
   84400   -254687.75     70.26455   -254617.49    343.39243    4646.6984    16117.588 
   84500   -254688.96    71.680002   -254617.28    350.30994    4741.0469    16117.588 
   84600   -254689.55    73.199718   -254616.35    357.73699    4816.4655    16117.588 
   84700   -254689.67    72.590287   -254617.08    354.75862    4799.4928    16117.588 
   84800   -254688.39    69.114204   -254619.28    337.77053    4584.2913    16117.588 
   84900   -254690.52    69.597272   -254620.92    340.13135    4578.1676    16117.588 
   85000   -254689.35    70.237374   -254619.11    343.25961    4619.5632    16117.588 
   85100   -254690.01    74.284046   -254615.73    363.03625    4888.3045    16117.588 
   85200   -254687.81    71.153206   -254616.66    347.73541     4764.737    16117.588 
   85300   -254687.61    69.901835    -254617.7    341.61979    4596.6383    16117.588 
   85400   -254688.69    71.067902   -254617.63    347.31852    4673.4266    16117.588 
   85500   -254689.21    74.444583   -254614.76    363.82082    4898.2485    16117.588 
   85600    -254686.9    73.768728   -254613.14    360.51783    4853.5331    16117.588 
   85700   -254685.99     70.52471   -254615.46    344.66387    4689.8901    16117.588 
   85800   -254689.16    70.621741   -254618.54    345.13807    4643.9475    16117.588 
   85900   -254688.54    70.124371   -254618.42    342.70735     4647.064    16117.588 
   86000   -254686.52    69.570042   -254616.95    339.99828     4575.176    16117.588 
   86100   -254686.73    71.368416   -254615.36    348.78717    4693.9912    16117.588 
   86200   -254687.96    73.338042   -254614.62      358.413    4825.3214    16117.588 
   86300   -254689.29     71.05958   -254618.23    347.27785    4673.1414    16117.588 
   86400   -254690.41     69.89289   -254620.51    341.57608    4596.0533    16117.588 
   86500   -254691.13    72.575392   -254618.56    354.68583    4773.9942    16117.588 
   86600   -254688.83    72.896808   -254615.94    356.25663    4833.7756    16117.588 
   86700    -254688.9    73.456183   -254615.45    358.99037     4857.739    16117.588 
   86800   -254688.94    71.335859    -254617.6    348.62806     4825.783    16117.588 
   86900   -254690.92    70.175738   -254620.75    342.95839    4643.9536    16117.588 
   87000   -254690.64    70.369256   -254620.27    343.90414    4627.4461    16117.588 
   87100   -254690.71    71.933564   -254618.78    351.54913    4760.3749    16117.588 
   87200   -254687.91    70.263699   -254617.65    343.38827    4650.9681    16117.588 
   87300   -254688.28    74.331745   -254613.95    363.26936     4889.276    16117.588 
   87400   -254687.87    73.210156   -254614.66    357.78801    4892.4181    16117.588 
   87500   -254688.01    72.012831      -254616    351.93651    4735.9569    16117.588 
   87600   -254688.99    71.284313   -254617.71    348.37615    4687.4584    16117.588 
   87700   -254691.15    73.348648    -254617.8    358.46484    4859.7381    16117.588 
   87800   -254692.16    71.859415    -254620.3    351.18675     4724.219    16117.588 
   87900   -254692.89    69.968882   -254622.92    341.94746    4623.8036    16117.588 
   88000      -254692    70.565851   -254621.44    344.86493    4639.1306    16117.588 
   88100   -254691.05    71.804955   -254619.24     350.9206    4721.1338    16117.588 
   88200   -254691.82    73.459124   -254618.36    359.00475    4918.9224    16117.588 
   88300   -254689.36     70.72418   -254618.64    345.63871    4675.0376    16117.588 
[...]
  408900   -254688.84    69.924099   -254618.92     341.7286     4600.356    16117.588 
  409000   -254689.88    74.421539   -254615.46     363.7082    4895.8329    16117.588 
  409100   -254688.87    74.392489   -254614.48    363.56623    4918.6268    16117.588 
  409200   -254688.53    71.829663    -254616.7    351.04135    4758.4854    16117.588 
  409300   -254691.16    73.422649   -254617.74    358.82649    4831.0527    16117.588 
  409400   -254690.74    72.254731   -254618.49    353.11871    4754.0816    16117.588 
  409500   -254689.71    70.647492   -254619.07    345.26392    4648.0011    16117.588 
  409600   -254690.35    71.660321   -254618.69    350.21375    4758.7953    16117.588 
  409700   -254688.91     71.20053   -254617.71    347.96669    4753.8726    16117.588 
  409800   -254687.97    73.147689   -254614.83    357.48272    4837.3351    16117.588 
  409900   -254686.86    74.688537   -254612.17    365.01306    4984.9361    16117.588 
  410000      -254686    71.552524   -254614.45    349.68694    4705.7889    16117.588 
  410100   -254685.58     70.54959   -254615.03    344.78546    4637.8595    16117.588 
  410200   -254685.83    71.093721   -254614.74     347.4447    4702.3983    16117.588 
  410300   -254686.31    70.399608   -254615.91    344.05248    4629.3251    16117.588 
  410400    -254690.2    70.057941   -254620.14     342.3827    4607.9736    16117.588 
  410500   -254689.48    69.590231   -254619.89    340.09694    4604.1156    16117.588 
  410600   -254690.17    71.145888   -254619.03    347.69965    4679.9521    16117.588 
  410700   -254690.01    72.138328   -254617.87    352.54984    4746.5783    16117.588 
  410800      -254689    74.116355   -254614.88    362.21673    4914.4242    16117.588 
  410900   -254688.63    75.307724   -254613.33    368.03911    4957.9376    16117.588 
  411000    -254691.2    73.272041   -254617.93    358.09045    4871.9408    16117.588 
  411100   -254688.52    69.070691   -254619.45    337.55788    4544.0247    16117.588 
  411200   -254689.24    71.174578   -254618.07    347.83986     4774.064    16117.588 
  411300   -254687.29    71.660848   -254615.63    350.21633    4714.7085    16117.588 
  411400   -254688.05    71.581799   -254616.47       349.83    4710.0295    16117.588 
  411500   -254688.06    68.860011    -254619.2    336.52825    4529.3323    16117.588 
  411600   -254689.22    70.464324   -254618.76    344.36875     4635.411    16117.588 
  411700    -254688.5    73.896882   -254614.61    361.14413    4862.4781    16117.588 
  411800   -254686.45     70.85609   -254615.59    346.28336    4792.5977    16117.588 
  411900   -254686.87    70.162236   -254616.71    342.89241    4615.2911    16117.588 
  412000   -254688.41     72.11467    -254616.3    352.43422    4744.5955    16117.588 
  412100   -254685.09    71.953518   -254613.13    351.64665    4775.3713    16117.588 
  412200   -254686.34    73.254287   -254613.09    358.00368    4847.9681    16117.588 
  412300   -254688.15     71.27905   -254616.87    348.35043    4690.4731    16117.588 
  412400   -254690.09    72.026516   -254618.07     352.0034     4738.844    16117.588 
  412500   -254690.52    71.128622   -254619.39    347.61527    4678.1527    16117.588 
  412600   -254689.93    69.544964   -254620.39    339.87571    4575.7706    16117.588 
  412700   -254692.98    71.407445   -254621.58    348.97791    4779.9697    16117.588 
  412800   -254690.81    70.634872   -254620.18    345.20224    4704.1965    16117.588 
  412900   -254691.84     74.28669   -254617.56    363.04918    5010.0231    16117.588 
  413000   -254690.07    70.673856    -254619.4    345.39276    4649.7441    16117.588 
  413100   -254691.58    70.504714   -254621.08    344.56614    4639.2108    16117.588 
  413200   -254691.57    70.049877   -254621.52    342.34329    4609.4123    16117.588 
  413300   -254691.23    74.247875   -254616.98    362.85948    4887.8824    16117.588 
  413400   -254687.97    72.794412   -254615.18    355.75621    4790.3674    16117.588 
  413500   -254688.49    73.100775   -254615.39    357.25344    4811.4724    16117.588 
  413600   -254689.06    70.976335   -254618.08    346.87102    4670.3925    16117.588 
  413700   -254689.92    70.352699   -254619.57    343.82323    4721.9451    16117.588 
  413800   -254689.91    73.169392   -254616.74    357.58879    4815.1072    16117.588 
  413900    -254687.6     72.09853    -254615.5    352.35534    4785.6742    16117.588 
  414000   -254687.39    71.612585   -254615.78    349.98046    4713.1135    16117.588 
  414100   -254689.12    71.924985    -254617.2     351.5072    4778.1253    16117.588 
  414200   -254688.78    70.030566   -254618.75    342.24892    4607.0687    16117.588 
  414300   -254689.16    72.110696   -254617.05     352.4148    4806.6205    16117.588 
  414400   -254686.73    73.465642   -254613.27     359.0366    4835.7984    16117.588 
  414500   -254686.68     73.21017   -254613.47    357.78808    4855.4248    16117.588 
  414600   -254687.79    71.662065   -254616.13    350.22228    4715.9823    16117.588 
  414700   -254687.78    70.056467   -254617.73     342.3755    4609.2461    16117.588 
  414800   -254688.52    71.472425   -254617.04    349.29548    4803.2526    16117.588 
  414900   -254686.42    70.958803   -254615.46    346.78534    4669.7784    16117.588 
  415000   -254687.75    73.283356   -254614.46    358.14575    4948.7259    16117.588 
  415100   -254686.72    71.253478   -254615.47    348.22545    4723.3139    16117.588 
  415200   -254688.12    70.382771   -254617.74    343.97019    4630.9691    16117.588 
  415300   -254687.76    70.619942   -254617.14    345.12928    4681.1184    16117.588 
  415400   -254687.32    73.049549   -254614.27     357.0031    4863.9619    16117.588 
  415500   -254688.25    72.673785   -254615.58    355.16669    4808.7531    16117.588 
  415600   -254689.51    71.292013   -254618.21    348.41378    4690.5449    16117.588 
  415700   -254689.47    71.135282   -254618.34    347.64782    4773.6903    16117.588 
  415800   -254689.55    71.810422   -254617.74    350.94732    4724.0532    16117.588 
  415900   -254688.26    70.395361   -254617.86    344.03172    4629.5944    16117.588 
  416000   -254688.75    71.826099   -254616.92    351.02393    4750.3547    16117.588 
  416100   -254689.64    73.522991   -254616.12    359.31687    4864.8078    16117.588 
  416200   -254688.68    71.700656   -254616.98    350.41087    4715.1686    16117.588 
  416300   -254691.18    72.169588   -254619.01    352.70261    4897.3754    16117.588 
  416400   -254688.51    68.971707   -254619.54    337.07413    4535.7864    16117.588 
  416500   -254688.19    71.867891   -254616.32    351.22817    4835.4033    16117.588 
  416600    -254688.5    73.213988   -254615.28    357.80674    4816.8163    16117.588 
  416700   -254689.46    71.760164    -254617.7     350.7017    4742.1273    16117.588 
  416800    -254690.7    71.784219   -254618.92    350.81926    4722.2115    16117.588 
  416900   -254690.77    71.789405   -254618.98     350.8446    4723.0844    16117.588 
  417000   -254690.93    72.003709   -254618.93    351.89194    4736.3379    16117.588 
  417100   -254689.66    70.721785   -254618.93      345.627    4651.8366    16117.588 
  417200   -254689.04     69.46883   -254619.57    339.50363    4568.4581    16117.588 
  417300   -254690.63    71.901592   -254618.73    351.39288    4757.1218    16117.588 
  417400   -254688.21     71.84667   -254616.36    351.12446    4750.4921    16117.588 
  417500   -254689.92    74.213364    -254615.7    362.69082     4881.495    16117.588 
  417600    -254689.4    70.515947   -254618.88    344.62104    4711.1352    16117.588 
  417700   -254691.33    70.655616   -254620.67    345.30362    4645.8555    16117.588 
  417800   -254691.02    71.302501   -254619.72    348.46504    4687.6204    16117.588 
  417900   -254689.34    71.329785   -254618.01    348.59838    4690.9143    16117.588 
  418000   -254691.03    73.426394    -254617.6    358.84479     4858.683    16117.588 
  418100    -254689.3    72.015021   -254617.29    351.94722     4781.439    16117.588 
  418200   -254686.67      71.6838   -254614.98    350.32849    4713.8841    16117.588 
  418300   -254686.22    72.445026   -254613.78    354.04871    4799.1649    16117.588 
  418400   -254688.66     71.71405   -254616.95    350.47633    4763.6926    16117.588 
  418500   -254690.42    71.696812   -254618.72    350.39209    4716.5221    16117.588 
  418600    -254689.6    70.978681   -254618.62    346.88248     4667.095    16117.588 
  418700   -254691.14    73.310183   -254617.83    358.27685    4822.3672    16117.588 
  418800   -254688.63    73.048345   -254615.58    356.99721     4805.168    16117.588 
  418900   -254684.51    71.922041   -254612.59    351.49281    4729.8516    16117.588 
  419000   -254682.65    72.446245   -254610.21    354.05467    4765.4717    16117.588 
  419100   -254684.23    71.943997   -254612.28    351.60011     4732.348    16117.588 
  419200   -254688.69    72.221288   -254616.47    352.95527    4750.8314    16117.588 
  419300    -254687.7    70.888203   -254616.81    346.44031    4661.4066    16117.588 
  419400    -254687.2    71.184434   -254616.01    347.88803    4837.6576    16117.588 
  419500   -254688.91    73.935732   -254614.97    361.33399    4863.7019    16117.588 
  419600   -254689.52    73.835506   -254615.68    360.84418    4857.1673    16117.588 
  419700   -254688.59    69.396458    -254619.2    339.14995    4561.1476    16117.588 
  419800   -254690.88    71.952008   -254618.92    351.63927    4783.6687    16117.588 
  419900   -254689.28    71.402931   -254617.87    348.95585    4691.1303    16117.588 
  420000   -254690.67    73.467793   -254617.21    359.04711    4831.2729    16117.588 
  420100   -254689.76    72.327396   -254617.44    353.47384    4756.3211    16117.588 
  420200   -254689.78    71.298128   -254618.48    348.44366    4688.9655    16117.588 
  420300   -254687.06    69.194737   -254617.87    338.16411    4548.5364    16117.588 
  420400   -254688.07    72.922834   -254615.15    356.38382    4840.9005    16117.588 
  420500   -254687.45    73.510346   -254613.94    359.25508    4864.5856    16117.588 
  420600   -254688.66    72.605666   -254616.06    354.83378    4821.8085    16117.588 
  420700   -254690.31    72.389694   -254617.92     353.7783    4759.6168    16117.588 
  420800   -254690.44    72.266342   -254618.18    353.17546    4944.6328    16117.588 
  420900   -254688.72    70.433904   -254618.29    344.22008    4668.8582    16117.588 
  421000   -254689.83    72.292978   -254617.54    353.30563    4752.8788    16117.588 
  421100      -254686    70.411922   -254615.59    344.11266     4660.082    16117.588 
  421200   -254684.83    72.190366   -254612.64    352.80415    4779.3396    16117.588 
  421300   -254683.93    71.571609   -254612.36     349.7802    4705.4687    16117.588 
  421400   -254686.44    70.704441   -254615.74    345.54223    4649.4658    16117.588 
  421500   -254687.48    69.413063   -254618.07     339.2311    4613.7336    16117.588 
  421600   -254688.36    70.965723   -254617.39    346.81916    4665.9837    16117.588 
  421700   -254687.77    71.738606   -254616.03    350.59634    4717.7727    16117.588 
  421800   -254687.88    72.535563   -254615.35    354.49118    4769.3944    16117.588 
  421900   -254687.79    70.370789   -254617.42    343.91163    4672.9761    16117.588 
  422000   -254690.92    70.597609   -254620.32    345.02013    4716.1922    16117.588 
  422100    -254692.1    71.056749   -254621.05    347.26401     4671.212    16117.588 
  422200   -254686.69    68.512922   -254618.18    334.83198    4502.3855    16117.588 
  422300   -254689.36    74.661445    -254614.7    364.88065    4909.5581    16117.588 
  422400   -254686.23    71.764374   -254614.46    350.72227    4718.1814    16117.588 
  422500   -254686.48    72.371319   -254614.11     353.6885    4758.1547    16117.588 
  422600   -254688.35    73.226219   -254615.13    357.86651    4865.8932    16117.588 
  422700   -254689.71    71.493995   -254618.22    349.40089    4699.6014    16117.588 
  422800   -254691.27    71.567159    -254619.7    349.75846    4771.3828    16117.588 
  422900   -254691.38    72.276399   -254619.11    353.22461    4751.5481    16117.588 
  423000   -254689.88    75.009263   -254614.87    366.58049    4999.0587    16117.588 
  423100   -254688.85    74.321726   -254614.52     363.2204    4886.9306    16117.588 
  423200   -254689.59    72.708558   -254616.88    355.33663    4780.5592    16117.588 
  423300   -254688.02    70.519912    -254617.5    344.64042    4688.1429    16117.588 
  423400   -254687.57    70.147529   -254617.42    342.82053    4637.9999    16117.588 
  423500   -254688.08    70.831391   -254617.25    346.16266    4724.6116    16117.588 
  423600   -254687.62    71.611125   -254616.01    349.97332    4707.0563    16117.588 
  423700    -254688.6    73.380361   -254615.22    358.61982    4858.9418    16117.588 
  423800   -254688.18    72.475247   -254615.71    354.19641    4766.6104    16117.588 
  423900   -254689.37    70.744311   -254618.62    345.73708    4684.4996    16117.588 
  424000   -254689.36    69.025215   -254620.33    337.33563    4537.1485    16117.588 
  424100   -254689.25     69.23212   -254620.02     338.3468    4581.8562    16117.588 
  424200    -254687.4    71.963771   -254615.44    351.69676    4730.9246    16117.588 
  424300   -254685.96    71.472891   -254614.48    349.29775    4697.8331    16117.588 
  424400   -254686.23    71.206167   -254615.02    347.99424    4680.2355    16117.588 
  424500   -254686.12    70.310437   -254615.81    343.61668    4621.3494    16117.588 
  424600   -254687.77    69.307514   -254618.46    338.71527    4554.8809    16117.588 
  424700   -254689.44     69.23084   -254620.21    338.34055    4549.0126    16117.588 
  424800   -254687.88    70.893863   -254616.99    346.46797     4660.534    16117.588 
  424900   -254687.84    73.363815   -254614.47    358.53896    4824.4279    16117.588 
  425000   -254686.56    71.664635    -254614.9    350.23484    4706.8536    16117.588 
  425100   -254686.22    69.278995   -254616.94    338.57589    4553.4949    16117.588 
  425200   -254689.53    71.810013   -254617.72    350.94532    4721.4427    16117.588 
  425300    -254686.7    69.078189   -254617.62    337.59452    4541.0559    16117.588 
  425400   -254688.38    74.147247   -254614.23     362.3677    4912.9386    16117.588 
  425500   -254687.86    74.150724   -254613.71    362.38469    4876.0312    16117.588 
  425600   -254689.29    72.225429   -254617.06    352.97551    4748.5948    16117.588 
  425700   -254691.86    73.802951   -254618.06    360.68508    4852.8067    16117.588 
  425800   -254691.82    71.993341   -254619.83    351.84127    4732.7026    16117.588 
  425900   -254690.78    70.220849   -254620.56    343.17885    4615.3391    16117.588 
  426000   -254691.27    72.415061   -254618.86    353.90227    4794.8315    16117.588 
  426100   -254687.55    71.565883   -254615.98    349.75222      4731.22    16117.588 
  426200    -254688.2    73.281976   -254614.92      358.139    4889.6715    16117.588 
  426300   -254687.84    71.539873    -254616.3    349.62511    4702.2773    16117.588 
  426400   -254688.92    70.473944   -254618.45    344.41577    4656.2886    16117.588 
  426500   -254689.21    70.437822   -254618.77    344.23923    4665.5954    16117.588 
  426600   -254688.43    72.465963   -254615.97    354.15103    4762.5619    16117.588 
  426700   -254687.48    73.548106   -254613.93    359.43961    4925.4613    16117.588 
  426800   -254687.35    73.011438   -254614.34    356.81684    4823.9321    16117.588 
  426900    -254690.4     72.37989   -254618.02    353.73038    4757.5068    16117.588 
  427000   -254689.59    70.036031   -254619.55    342.27562    4602.5034    16117.588 
  427100   -254691.91     74.00433    -254617.9    361.66924    4900.1599    16117.588 
  427200   -254688.27    71.579957   -254616.69      349.821    4744.0966    16117.588 
  427300   -254691.13    73.619282   -254617.51    359.78746    4839.0064    16117.588 
  427400   -254690.87     69.94004   -254620.93     341.8065    4595.4515    16117.588 
  427500    -254689.5    69.014343   -254620.49     337.2825    4589.3869    16117.588 
  427600   -254689.71    71.879015   -254617.83    351.28254    4794.3862    16117.588 
  427700   -254689.36    72.958131    -254616.4    356.55633     4823.067    16117.588 
  427800   -254688.37    71.444018   -254616.92    349.15665    4696.4195    16117.588 
  427900   -254689.12    71.917008   -254617.21    351.46822    4727.8683    16117.588 
  428000   -254689.11    69.874684   -254619.23     341.4871    4633.2395    16117.588 
  428100   -254691.65    69.064482   -254622.59    337.52754    4538.6759    16117.588 
  428200   -254692.75    70.581201   -254622.17    344.93995    4732.0553    16117.588 
  428300   -254690.83    71.065042   -254619.77    347.30454    4672.0118    16117.588 
  428400   -254691.28    73.496747   -254617.78    359.18862    4831.3159    16117.588 
  428500   -254688.78    71.469381   -254617.32     349.2806    4696.5256    16117.588 
  428600   -254688.99    73.136335   -254615.85    357.42723    4808.5402    16117.588 
  428700   -254685.12    72.273214   -254612.84    353.20904    4839.9076    16117.588 
  428800   -254684.85    72.110884   -254612.74    352.41572    4771.0812    16117.588 
  428900   -254688.02    72.267847   -254615.75    353.18281    4751.0838    16117.588 
  429000   -254688.93    71.448417   -254617.49    349.17815    4721.4322    16117.588 
  429100   -254686.61    69.457241   -254617.16      339.447    4648.8931    16117.588 
  429200   -254686.91    72.610822    -254614.3    354.85898    4773.5426    16117.588 
  429300   -254688.23    74.470616   -254613.76    363.94805    4896.4174    16117.588 
  429400   -254687.01    70.836765   -254616.17    346.18892    4655.5727    16117.588 
  429500   -254689.24    71.830115   -254617.41    351.04356    4721.0943    16117.588 
  429600   -254691.13    71.967385   -254619.17    351.71441    4856.9564    16117.588 
  429700   -254689.11    67.816528    -254621.3    331.42861    4486.6667    16117.588 
  429800    -254692.6     69.01385   -254623.59    337.28009    4533.9912    16117.588 
  429900   -254690.68    70.160097   -254620.52    342.88195    4610.9616    16117.588 
  430000   -254689.94    71.925772   -254618.02    351.51105    4727.3664    16117.588 
Loop time of 70695.2 on 1 procs for 430000 steps with 1584 atoms

Performance: 0.263 ns/day, 91.338 hours/ns, 6.082 timesteps/s
97.9% CPU use with 1 MPI tasks x 1 OpenMP threads

MPI task timing breakdown:
Section |  min time  |  avg time  |  max time  |%varavg| %total
---------------------------------------------------------------
Pair    | 66647      | 66647      | 66647      |   0.0 | 94.27
Kspace  | 221.2      | 221.2      | 221.2      |   0.0 |  0.31
Neigh   | 1015.8     | 1015.8     | 1015.8     |   0.0 |  1.44
Comm    | 11.211     | 11.211     | 11.211     |   0.0 |  0.02
Output  | 2786.3     | 2786.3     | 2786.3     |   0.0 |  3.94
Modify  | 11.57      | 11.57      | 11.57      |   0.0 |  0.02
Other   |            | 1.909      |            |       |  0.00

Nlocal:        1584.00 ave        1584 max        1584 min
Histogram: 1 0 0 0 0 0 0 0 0 0
Nghost:        10228.0 ave       10228 max       10228 min
Histogram: 1 0 0 0 0 0 0 0 0 0
Neighs:        818321.0 ave      818321 max      818321 min
Histogram: 1 0 0 0 0 0 0 0 0 0
FullNghs:  1.12466e+06 ave 1.12466e+06 max 1.12466e+06 min
Histogram: 1 0 0 0 0 0 0 0 0 0

Total # of neighbors = 1124656
Ave neighs/atom = 710.01010
Neighbor list builds = 43000
Dangerous builds not checked
Total wall time: 19:38:21
