LAMMPS (29 Sep 2021 - Update 2)
OMP_NUM_THREADS environment is not set. Defaulting to 1 thread. (src/comm.cpp:98)
  using 1 OpenMP thread(s) per MPI task
Reading data file ...
  orthogonal box = (0.0000000 0.0000000 0.0000000) to (25.260000 25.260000 25.260000)
  1 by 1 by 1 MPI processor grid
WARNING: Atom style in data file differs from currently defined atom style (src/read_data.cpp:516)
  reading atoms ...
  1584 atoms
  read_data CPU = 0.002 seconds
NequIP Coeff: type 1 is element O
NequIP Coeff: type 2 is element H
NequIP Coeff: type 3 is element Li
NequIP Coeff: type 4 is element Cl
Scanning dump file ...
Reading snapshot from dump file ...
  orthogonal box = (0.0000000 0.0000000 0.0000000) to (25.260000 25.260000 25.260000)
  1584 atoms before read
  1584 atoms in snapshot
  0 atoms purged
  1584 atoms replaced
  0 atoms trimmed
  0 atoms added
  1584 atoms after read
PPPM initialization ...
  using 12-bit tables for long-range coulomb (src/kspace.cpp:340)
  G vector (1/distance) = 0.22568151
  grid = 9 9 9
  stencil order = 5
  estimated absolute RMS force accuracy = 8.1621662e-06
  estimated relative force accuracy = 5.6683107e-07
  using double precision FFTW3
  3d grid and FFT values/proc = 2744 729
Neighbor list info ...
  update every 10 steps, delay 0 steps, check no
  max neighbors/atom: 2000, page size: 100000
  master list distance cutoff = 12
  ghost atom cutoff = 12
  binsize = 6, bins = 5 5 5
  3 neighbor lists, perpetual/occasional/extra = 3 0 0
  (1) pair nequip, perpetual
      attributes: full, newton off
      pair build: full/bin/atomonly
      stencil: full/bin/3d
      bin: standard
  (2) pair coul/long, perpetual, half/full from (1)
      attributes: half, newton off
      pair build: halffull/newtoff
      stencil: none
      bin: none
  (3) pair gauss/cut, perpetual, copy from (2)
      attributes: half, newton off
      pair build: copy
      stencil: none
      bin: none
Setting up Verlet run ...
  Unit style    : metal
  Current step  : 0
  Time step     : 0.0005
Per MPI rank memory allocation (min/avg/max) = 16.42 | 16.42 | 16.42 Mbytes
Step PotEng KinEng TotEng Temp Press Volume 
       0   -254646.91    51.154702   -254595.76          250    3370.4769    16117.588 
     100    -254675.6    69.654476   -254605.94    340.41092    4572.3258    16117.588 
     200   -254685.06    64.691163   -254620.37    316.15453    4245.0796    16117.588 
     300   -254690.55    57.837024   -254632.72    282.65742    3790.5234    16117.588 
     400   -254698.13    55.050158   -254643.08    269.03762    3605.4179    16117.588 
     500   -254703.55    52.236258   -254651.31    255.28571    3470.0789    16117.588 
     600   -254708.59    51.698748   -254656.89    252.65882    3383.1502    16117.588 
     700      -254711    50.330871   -254660.67    245.97383    3292.6276    16117.588 
     800   -254713.19    50.485926   -254662.71     246.7316     3303.292    16117.588 
     900   -254715.06    51.317343   -254663.74    250.79485    3357.4932    16117.588 
    1000   -254714.56    50.640293   -254663.92    247.48601    3312.9479    16117.588 
    1100   -254714.32    51.829157   -254662.49    253.29615    3391.4758    16117.588 
    1200   -254714.27    53.396739   -254660.87    260.95714    3495.3195    16117.588 
    1300   -254713.68    52.175413    -254661.5    254.98835    3446.1046    16117.588 
    1400   -254714.52    51.207722   -254663.31    250.25911     3351.603    16117.588 
    1500   -254715.62    50.354035   -254665.27    246.08703    3358.1464    16117.588 
    1600   -254717.61    50.663491   -254666.95    247.59938    3315.2328    16117.588 
    1700   -254718.99     51.73659   -254667.26    252.84376    3386.5327    16117.588 
    1800   -254716.22    50.308939   -254665.91    245.86664    3292.1855    16117.588 
    1900   -254716.34    52.493493   -254663.85    256.54285    3461.8933    16117.588 
    2000   -254716.45    52.873913   -254663.58    258.40202    3462.0779    16117.588 
    2100   -254718.02    51.884766   -254666.14    253.56792    3396.5205    16117.588 
    2200   -254718.59    50.292726    -254668.3     245.7874    3292.3062    16117.588 
    2300   -254717.65    49.022205   -254668.63    239.57819    3208.6533    16117.588 
    2400   -254718.43    51.789269   -254666.65    253.10121    3391.8578    16117.588 
    2500   -254716.29    50.868615   -254665.42    248.60185    3330.1184    16117.588 
    2600    -254716.8    50.853609   -254665.95    248.52851    3329.6899    16117.588 
    2700    -254716.9     49.94873   -254666.95    244.10625    3269.8355    16117.588 
    2800   -254717.21    49.655785   -254667.55    242.67459    3285.3581    16117.588 
    2900   -254718.81    51.639454   -254667.17    252.36905    3410.0954    16117.588 
    3000   -254718.79    51.453698   -254667.33    251.46123    3368.8745    16117.588 
    3100   -254719.53    51.628395    -254667.9      252.315    3380.6055    16117.588 
    3200    -254719.7    49.926461   -254669.78    243.99742    3268.8583    16117.588 
    3300    -254720.3    49.984809   -254670.32    244.28257    3271.9514    16117.588 
    3400   -254719.23    50.315415   -254668.91    245.89829     3293.488    16117.588 
    3500   -254717.33    50.953162   -254666.38    249.01504    3335.3056    16117.588 
    3600   -254719.19    52.237644   -254666.95    255.29248    3421.2607    16117.588 
    3700   -254719.25    50.448395    -254668.8    246.54818    3303.1815    16117.588 
    3800   -254719.32    49.632686   -254669.69     242.5617    3271.9801    16117.588 
    3900   -254720.35    50.778965   -254669.58    248.16372    3325.0593    16117.588 
    4000   -254720.18    50.878084    -254669.3    248.64813    3331.6991    16117.588 
    4100   -254720.88    52.311461   -254668.57    255.65324    3426.7294    16117.588 
    4200   -254721.14    50.909082   -254670.23    248.79962    3356.6307    16117.588 
    4300   -254721.03    48.617139   -254672.41    237.59858    3181.0169    16117.588 
    4400   -254719.57    48.693152   -254670.87    237.97007    3185.9432    16117.588 
    4500   -254720.97     52.23705   -254668.73    255.28958    3420.3003    16117.588 
    4600   -254718.79    50.282737    -254668.5    245.73859     3291.609    16117.588 
    4700   -254720.57    51.176063   -254669.39    250.10439    3351.1475    16117.588 
    4800   -254722.83    50.815938   -254672.01    248.34441    3327.4041    16117.588 
    4900    -254721.3    48.976767   -254672.32    239.35613    3205.3341    16117.588 
    5000   -254720.81    50.950433   -254669.86    249.00171    3336.7448    16117.588 
    5100   -254720.62    51.773384   -254668.85    253.02358    3390.6904    16117.588 
    5200   -254720.59    51.397756    -254669.2    251.18784    3365.6694    16117.588 
    5300   -254722.79    51.867953   -254670.92    253.48575    3396.7337    16117.588 
    5400   -254723.03    50.130754    -254672.9    244.99583    3281.8377    16117.588 
    5500   -254723.85    50.047362    -254673.8    244.58827    3276.1543    16117.588 
    5600   -254724.04    50.937342    -254673.1    248.93773    3334.9771    16117.588 
    5700   -254723.35    52.633023   -254670.72    257.22475    3487.3775    16117.588 
    5800   -254723.02    52.686015   -254670.33    257.48373    3450.9886    16117.588 
    5900   -254723.75    51.997762   -254671.75    254.12015    3405.0059    16117.588 
    6000   -254723.53    50.381426   -254673.15    246.22089    3298.0808    16117.588 
    6100   -254724.64    51.114568   -254673.53    249.80386    3345.9192    16117.588 
    6200   -254724.27    51.731599   -254672.54    252.81937    3477.7018    16117.588 
    6300   -254722.56    51.229567   -254671.33    250.36588    3354.2515    16117.588 
    6400   -254722.94    53.054878   -254669.88    259.28642    3475.9145    16117.588 
    6500   -254721.74    51.409013   -254670.34    251.24285    3365.6757    16117.588 
    6600    -254723.7    52.312881   -254671.39    255.66018    3425.7139    16117.588 
    6700   -254724.31    50.394119   -254673.92    246.28293    3298.8054    16117.588 
    6800   -254723.75    49.904533   -254673.84    243.89025    3328.2569    16117.588 
    6900    -254722.3    49.932581   -254672.37    244.02733    3267.8241    16117.588 
    7000    -254724.4    52.337258   -254672.06    255.77931    3427.5909    16117.588 
    7100   -254722.98    50.209424   -254672.77     245.3803    3286.8509    16117.588 
    7200   -254722.29    50.022712   -254672.27    244.46781    3273.8962    16117.588 
    7300   -254723.06    52.043721   -254671.02    254.34476    3408.2841    16117.588 
    7400   -254722.79    52.704013   -254670.09    257.57169    3451.5518    16117.588 
    7500   -254723.44    51.442039      -254672    251.40425    3368.2443    16117.588 
    7600   -254724.78    51.072704    -254673.7    249.59926    3408.6746    16117.588 
    7700   -254725.02    51.662152   -254673.36    252.47998    3410.9478    16117.588 
    7800   -254722.47     50.83772   -254671.63    248.45086    3327.4261    16117.588 
    7900   -254722.56    53.405965   -254669.16    261.00223    3497.5468    16117.588 
    8000   -254721.22    51.617331   -254669.61    252.26093    3436.2963    16117.588 
    8100   -254723.83    52.505952   -254671.33    256.60374    3438.2215    16117.588 
    8200   -254723.84    51.190334   -254672.65    250.17414    3388.2852    16117.588 
    8300   -254723.55    49.990005   -254673.56    244.30796    3271.7105    16117.588 
    8400   -254724.59    51.730415   -254672.86    252.81359    3386.8308    16117.588 
    8500   -254725.15    54.037302   -254671.12    264.08766    3539.5261    16117.588 
    8600   -254722.48    52.720936   -254669.75     257.6544    3452.5254    16117.588 
    8700   -254724.07    51.916981   -254672.16    253.72536    3427.9683    16117.588 
    8800   -254725.03    50.699758   -254674.33    247.77663    3318.4718    16117.588 
    8900    -254724.7    50.200152    -254674.5    245.33498    3285.0189    16117.588 
    9000    -254724.2     49.98646   -254674.21    244.29064    3269.8827    16117.588 
    9100   -254724.51    52.746739   -254671.77     257.7805    3453.2111    16117.588 
    9200   -254722.21     50.64127   -254671.57    247.49079    3314.7495    16117.588 
    9300   -254722.93     51.57992   -254671.35     252.0781    3376.3811    16117.588 
    9400   -254723.47    51.610971   -254671.86    252.22985    3416.3755    16117.588 
    9500   -254726.24     51.22118   -254675.01    250.32488    3353.1067    16117.588 
    9600   -254726.63    50.952576   -254675.68    249.01218    3335.4587    16117.588 
    9700    -254723.3     49.36993   -254673.93    241.27757    3230.4648    16117.588 
    9800   -254723.85    51.782391   -254672.07     253.0676    3390.9172    16117.588 
    9900   -254723.35    51.614542   -254671.74     252.2473    3426.9583    16117.588 
   10000   -254725.45    52.130801   -254673.32    254.77033    3413.1837    16117.588 
   10100   -254724.75    49.713166   -254675.04    242.95501    3252.7529    16117.588 
   10200   -254724.26    50.081813   -254674.18    244.75664    3276.8932    16117.588 
   10300   -254725.53    52.679729   -254672.85    257.45301    3449.0885    16117.588 
   10400   -254723.13    50.541335   -254672.59    247.00239    3332.5292    16117.588 
   10500   -254723.16    50.621245   -254672.54    247.39292    3313.6493    16117.588 
   10600   -254724.36    51.481201   -254672.88    251.59564    3370.5533    16117.588 
   10700   -254725.27    50.101115   -254675.17    244.85098     3279.043    16117.588 
   10800   -254727.08     51.84498   -254675.24    253.37348    3394.0681    16117.588 
   10900   -254725.55    51.696502   -254673.86    252.64785    3382.6209    16117.588 
   11000   -254725.32    51.587939   -254673.73    252.11728    3375.6886    16117.588 
   11100   -254725.01    51.299504   -254673.71    250.70766    3357.7606    16117.588 
   11200   -254725.73    52.639608   -254673.09    257.25694    3447.4787    16117.588 
   11300   -254724.94    52.301317   -254672.64    255.60366    3425.0799    16117.588 
   11400   -254722.63    50.969493   -254671.66    249.09486    3336.5354    16117.588 
   11500   -254725.33    54.339629   -254670.99    265.56517    3669.5442    16117.588 
   11600   -254725.06    51.423595   -254673.64    251.31411    3366.7246    16117.588 
   11700   -254725.98    51.714295   -254674.27     252.7348    3386.0429    16117.588 
   11800   -254725.86    50.936319   -254674.92    248.93273    3358.9719    16117.588 
   11900   -254725.95    51.396375   -254674.55    251.18108    3363.9561    16117.588 
   12000   -254724.44    50.785894   -254673.66    248.19758    3324.3178    16117.588 
   12100   -254724.45    52.804802   -254671.65    258.06426     3457.838    16117.588 
   12200   -254723.48    51.348464   -254672.13    250.94694    3361.9039    16117.588 
   12300   -254723.88    50.708838   -254673.17      247.821    3319.1194    16117.588 
   12400    -254725.6     50.12842   -254675.47    244.98442    3280.6672    16117.588 
   12500   -254725.36    50.004108   -254675.36    244.37689    3272.5467    16117.588 
   12600   -254723.64    50.380033   -254673.26    246.21409    3296.8322    16117.588 
   12700   -254724.48    53.222504   -254671.26    260.10563    3484.5549    16117.588 
   12800   -254724.99    52.792549    -254672.2    258.00438    3568.9344    16117.588 
   12900   -254725.41    50.509354    -254674.9     246.8461    3305.5476    16117.588 
   13000    -254727.4    51.620877   -254675.78    252.27826    3379.4839    16117.588 
   13100   -254726.73    50.637348   -254676.09    247.47162    3314.0595    16117.588 
   13200   -254726.42    50.817214    -254675.6    248.35065    3325.5875    16117.588 
   13300   -254724.33     51.54511   -254672.78    251.90797    3373.0895    16117.588 
   13400   -254726.02    53.176856   -254672.84    259.88254    3481.6657    16117.588 
   13500   -254727.22    52.249473   -254674.97    255.35029    3419.8555    16117.588 
   13600   -254726.45    50.945744    -254675.5    248.97879    3333.1999    16117.588 
   13700   -254725.34     49.53002   -254675.81    242.05996    3240.2956    16117.588 
   13800   -254724.67    51.395564   -254673.27    251.17712    3404.3122    16117.588 
   13900   -254724.72      52.1931   -254672.52    255.07479    3416.5691    16117.588 
   14000   -254725.14    51.146939   -254673.99    249.96206    3347.2577    16117.588 
   14100   -254725.34    50.018502   -254675.32    244.44723    3272.4162    16117.588 
   14200   -254723.67     48.43366   -254675.24    236.70189    3167.5944    16117.588 
   14300   -254725.56    51.477273   -254674.08    251.57645    3368.4889    16117.588 
   14400   -254726.99    53.160465   -254673.83    259.80243     3479.927    16117.588 
   14500   -254726.84    52.302648   -254674.53    255.61017    3423.6671    16117.588 
   14600   -254726.55    51.709102   -254674.84    252.70943    3383.7882    16117.588 
   14700   -254726.65    51.174181   -254675.48    250.09519    3349.0029    16117.588 
   14800   -254726.44    50.868192   -254675.57    248.59979    3366.5101    16117.588 
   14900   -254727.52    51.715956   -254675.81    252.74292    3385.4269    16117.588 
   15000   -254726.51    51.274457   -254675.24    250.58526    3355.4555    16117.588 
   15100   -254723.98    50.203826   -254673.78    245.35294    3285.0505    16117.588 
   15200   -254725.55    52.475857   -254673.08    256.45666    3435.8295    16117.588 
   15300   -254723.76    50.705939   -254673.05    247.80683    3317.8215    16117.588 
   15400   -254725.85    51.687648   -254674.16    252.60458    3383.9809    16117.588 
   15500   -254725.96    50.541791   -254675.42    247.00462    3345.5871    16117.588 
   15600   -254726.22    49.692607   -254676.52    242.85454    3252.1178    16117.588 
   15700    -254725.5    51.359131   -254674.14    250.99907    3363.6885    16117.588 
   15800    -254724.9    52.339353   -254672.56    255.78955    3428.5877    16117.588 
   15900   -254724.22    51.857154   -254672.36    253.43297    3396.3751    16117.588 
   16000   -254725.24    51.709418   -254673.53    252.71097    3386.9881    16117.588 
   16100   -254726.29    50.536103   -254675.76    246.97682    3340.5643    16117.588 
   16200    -254726.3    50.100992   -254676.19    244.85038    3278.5779    16117.588 
   16300   -254725.72    50.107369   -254675.62    244.88154    3339.7162    16117.588 
   16400   -254725.64     51.64414   -254673.99    252.39195    3380.4658    16117.588 
   16500   -254724.52    52.126652   -254672.39    254.75005    3412.9139    16117.588 
   16600    -254723.5    50.954682   -254672.55    249.02247    3335.3019    16117.588 
   16700   -254723.92    50.434948   -254673.49    246.48246    3300.5065    16117.588 
   16800   -254724.76    51.213182   -254673.54     250.2858    3352.9868    16117.588 
   16900   -254726.06     52.00192   -254674.06    254.14047    3404.2362    16117.588 
   17000   -254727.66    51.356425    -254676.3    250.98585      3361.02    16117.588 
   17100   -254725.63    48.718088   -254676.92    238.09194    3222.4524    16117.588 
   17200   -254724.28    49.632554   -254674.65    242.56105    3247.8967    16117.588 
   17300   -254724.22    50.912015   -254673.31    248.81395     3331.542    16117.588 
   17400   -254723.53    51.323102   -254672.21    250.82299    3358.5255    16117.588 
   17500   -254724.45     52.04989    -254672.4     254.3749    3476.3895    16117.588 
   17600   -254727.34    52.141951   -254675.19    254.82482    3414.6143    16117.588 
   17700   -254727.97    51.608645   -254676.36    252.21848    3378.1857    16117.588 
   17800   -254726.22    50.202554   -254676.01    245.34672    3285.5993    16117.588 
   17900   -254725.27    51.255434   -254674.01    250.49229    3356.0039    16117.588 
   18000   -254724.66    51.906708   -254672.75    253.67515    3438.5939    16117.588 
   18100   -254724.69    51.762572   -254672.92    252.97074     3389.609    16117.588 
   18200   -254725.88    50.806729   -254675.07    248.29941    3360.4829    16117.588 
   18300   -254726.63    50.848888   -254675.78    248.50545    3328.8822    16117.588 
   18400   -254727.67    51.714203   -254675.95    252.73436    3386.9671    16117.588 
   18500   -254726.47    50.716322   -254675.75    247.85758    3321.2077    16117.588 
   18600   -254727.32     51.47436   -254675.85    251.56221    3371.9064    16117.588 
   18700    -254728.3    51.522353   -254676.77    251.79676     3374.464    16117.588 
   18800   -254725.66    48.605763   -254677.05    237.54299    3180.8747    16117.588 
   18900   -254725.95    50.927587   -254675.02    248.89006    3334.9605    16117.588 
   19000   -254723.27     49.71811   -254673.55    242.97918     3254.517    16117.588 
   19100   -254725.52     52.29607   -254673.22    255.57802    3426.1144    16117.588 
   19200   -254725.94    52.169455   -254673.77    254.95923    3417.6356    16117.588 
   19300   -254725.47    49.111958   -254676.35    240.01683    3213.9999    16117.588 
   19400    -254725.5    49.451371   -254676.05    241.67559    3236.7827    16117.588 
   19500   -254725.61    51.629011   -254673.99    252.31801    3381.2477    16117.588 
   19600   -254725.15    51.886135   -254673.26    253.57461    3397.5462    16117.588 
   19700   -254724.91    51.178792   -254673.73    250.11773    3351.6838    16117.588 
   19800    -254726.3    50.316794   -254675.99    245.90503    3294.8419    16117.588 
   19900   -254726.12    49.062056   -254677.06    239.77295    3211.8635    16117.588 
   20000   -254725.35    50.439724   -254674.91     246.5058     3347.842    16117.588 
   20100   -254725.47    51.553282   -254673.92    251.94791    3375.7877    16117.588 
   20200   -254725.21    51.496188   -254673.72    251.66889    3419.9709    16117.588 
   20300   -254725.84    50.737024    -254675.1    247.95875    3322.0991    16117.588 
   20400   -254726.76    50.656479   -254676.11    247.56511    3343.7239    16117.588 
   20500   -254728.01    51.817196   -254676.19     253.2377    3393.6557    16117.588 
   20600   -254724.73    50.615783   -254674.12    247.36623    3367.8933    16117.588 
   20700   -254724.35    51.834422   -254672.51    253.32188    3394.3758    16117.588 
   20800   -254724.49     50.56355   -254673.93    247.11096    3310.0644    16117.588 
   20900   -254724.82    49.590953   -254675.23    242.35774    3245.1119    16117.588 
   21000   -254727.02    52.428981   -254674.59    256.22757    3457.4611    16117.588 
   21100   -254726.02    51.365134   -254674.65    251.02841    3362.6268    16117.588 
   21200   -254726.55    51.502756   -254675.04    251.70098    3372.4039    16117.588 
   21300   -254728.36    52.677996   -254675.68    257.44454    3450.2252    16117.588 
   21400   -254728.19     49.62731   -254678.56    242.53543    3248.6829    16117.588 
   21500      -254729    49.784702   -254679.22    243.30462    3259.2241    16117.588 
   21600   -254727.95     50.14743    -254677.8    245.07732    3283.0162    16117.588 
   21700   -254727.04    50.835847    -254676.2    248.44171    3416.0136    16117.588 
   21800   -254726.81    51.940781   -254674.87    253.84168    3401.8928    16117.588 
   21900   -254724.67    50.235989   -254674.44    245.51012    3320.8861    16117.588 
   22000   -254726.13    49.975587   -254676.16     244.2375    3271.0844    16117.588 
   22100   -254727.02    49.117958    -254677.9    240.04615    3214.8562    16117.588 
   22200   -254728.78    51.699413   -254677.08    252.66208    3385.4183    16117.588 
   22300   -254728.11    51.994459   -254676.12    254.10401    3405.0434    16117.588 
   22400   -254725.97    50.268402    -254675.7    245.66853    3350.7985    16117.588 
   22500   -254724.03    49.593657   -254674.43    242.37096    3245.9122    16117.588 
   22600   -254724.92     51.63431   -254673.28    252.34391     3381.553    16117.588 
   22700   -254724.32    51.486151   -254672.84    251.61984     3371.933    16117.588 
   22800   -254725.04    50.718323   -254674.32    247.86735    3320.5925    16117.588 
   22900   -254726.14    49.617363   -254676.52    242.48681    3281.0451    16117.588 
   23000   -254727.83    50.063399   -254677.76    244.66665    3277.1446    16117.588 
   23100   -254727.74    51.150977   -254676.59    249.98179    3389.1092    16117.588 
   23200   -254727.37    51.958871   -254675.41    253.93008    3476.3204    16117.588 
   23300   -254728.15    52.450777    -254675.7    256.33409     3435.281    16117.588 
   23400   -254727.01    48.697841   -254678.32    237.99298    3187.0735    16117.588 
   23500   -254728.74    49.984958   -254678.75     244.2833     3272.883    16117.588 
   23600   -254727.35    50.107362   -254677.24     244.8815    3280.3371    16117.588 
   23700   -254728.12    51.588214   -254676.53    252.11863    3377.7421    16117.588 
   23800   -254727.99    51.868863   -254676.12     253.4902    3431.8865    16117.588 
   23900   -254726.16    49.926676   -254676.23    243.99847    3267.8759    16117.588 
   24000   -254727.02    51.991488   -254675.03    254.08949    3404.8469    16117.588 
   24100    -254725.8    51.550182   -254674.25    251.93276     3376.053    16117.588 
   24200   -254727.85     51.33286   -254676.52    250.87068    3408.5387    16117.588 
   24300   -254729.54    51.368508   -254678.17    251.04489    3363.9154    16117.588 
   24400   -254728.02    49.550721   -254678.47    242.16112    3243.2759    16117.588 
   24500   -254729.06    51.728358   -254677.33    252.80353    3387.4498    16117.588 
   24600   -254727.11     52.04775   -254675.07    254.36445    3407.9893    16117.588 
   24700   -254725.52    50.908279   -254674.61     248.7957    3332.7414    16117.588 
   24800   -254727.48    50.433754   -254677.04    246.47663    3301.8016    16117.588 
   24900   -254730.11    51.826047   -254678.28    253.28095    3393.3893    16117.588 
   25000   -254730.83    52.851328   -254677.98    258.29164    3461.5689    16117.588 
   25100   -254731.28    52.478602    -254678.8    256.47008    3437.3174    16117.588 
   25200   -254731.57    50.767028    -254680.8    248.10538    3324.3261    16117.588 
   25300    -254730.8    49.831116   -254680.97    243.53145    3261.5718    16117.588 
   25400   -254729.22    49.909516   -254679.31     243.9146    3266.8017    16117.588 
   25500   -254728.73    50.140392   -254678.59    245.04293    3318.8504    16117.588 
   25600   -254727.51    49.659351   -254677.85    242.69202    3286.5127    16117.588 
   25700   -254728.17    52.002704   -254676.17     254.1443    3406.4295    16117.588 
   25800   -254727.63    51.720657   -254675.91     252.7659     3387.734    16117.588 
   25900   -254729.59    52.452451   -254677.14    256.34227    3492.2001    16117.588 
   26000   -254730.03    50.330677   -254679.69    245.97287     3295.566    16117.588 
   26100   -254729.35    50.731183   -254678.61     247.9302    3322.1206    16117.588 
   26200   -254728.38    51.337179   -254677.05    250.89179    3390.1517    16117.588 
   26300   -254727.68    51.787232   -254675.89    253.09126    3447.1773    16117.588 
   26400    -254729.2     53.74294   -254675.46    262.64907    3521.6582    16117.588 
   26500   -254729.85    50.913118   -254678.94    248.81935    3334.3976    16117.588 
   26600   -254730.93    51.218177   -254679.72    250.31021    3354.2362    16117.588 
   26700    -254730.6    52.631771   -254677.97    257.21864     3446.862    16117.588 
   26800   -254728.86     51.37551   -254677.49    251.07912    3395.5735    16117.588 
   26900   -254728.04    50.500973   -254677.54    246.80513    3306.4933    16117.588 
   27000   -254730.36    50.917892   -254679.44    248.84268    3333.9985    16117.588 
   27100   -254730.61    49.993834   -254680.61    244.32668    3297.8889    16117.588 
   27200   -254730.98    51.102485   -254679.88    249.74481    3346.5401    16117.588 
   27300   -254730.33    52.859317   -254677.47    258.33068    3462.3429    16117.588 
   27400   -254729.22    52.258066   -254676.96    255.39229     3422.819    16117.588 
   27500   -254728.66    50.193653   -254678.47    245.30322    3343.5017    16117.588 
   27600   -254729.98    51.218831   -254678.77     250.3134    3354.0535    16117.588 
   27700   -254728.64    49.606201   -254679.04    242.43226    3246.7547    16117.588 
   27800   -254730.09    51.966627   -254678.12    253.96799    3484.8135    16117.588 
   27900   -254729.78    51.240158   -254678.54    250.41763    3417.7614    16117.588 
   28000    -254728.5    50.307564   -254678.19    245.85992    3318.9157    16117.588 
   28100   -254729.91    52.625863   -254677.28    257.18976    3483.3974    16117.588 
   28200   -254729.42    51.627124    -254677.8    252.30879    3380.7424    16117.588 
   28300   -254730.98    51.740992   -254679.24    252.86528    3388.5334    16117.588 
   28400   -254730.12    49.852894   -254680.27    243.63788    3292.6329    16117.588 
   28500   -254729.73    51.239353   -254678.49     250.4137     3355.466    16117.588 
   28600   -254729.16    51.857615    -254677.3    253.43523    3396.1836    16117.588 
   28700   -254727.51    50.474052   -254677.04    246.67357    3304.4253    16117.588 
   28800   -254728.49    48.768197   -254679.72    238.33682    3191.8445    16117.588 
   28900   -254730.63    50.599403   -254680.03    247.28618    3366.1508    16117.588 
   29000   -254730.55    50.869137   -254679.68     248.6044    3330.3887    16117.588 
   29100    -254730.7    51.603423    -254679.1    252.19296    3379.0952    16117.588 
   29200   -254729.27    50.021834   -254679.25    244.46352    3274.0735    16117.588 
   29300   -254730.31    51.537184   -254678.77    251.86924    3374.8255    16117.588 
   29400    -254729.4    52.790914   -254676.61    257.99639    3458.7275    16117.588 
   29500   -254728.05    52.627847   -254675.43    257.19946    3447.6824    16117.588 
   29600   -254728.32    50.824932    -254677.5    248.38837     3364.274    16117.588 
   29700   -254728.89    50.192894    -254678.7    245.29951     3286.457    16117.588 
   29800   -254730.66    52.553827   -254678.11    256.83771    3473.6899    16117.588 
   29900   -254727.17     49.81903   -254677.35    243.47239    3261.9039    16117.588 
   30000   -254728.62    51.916453    -254676.7    253.72278    3400.6328    16117.588 
   30100   -254729.92    51.496471   -254678.43    251.67027    3372.4006    16117.588 
   30200   -254731.07    50.481536   -254680.59    246.71014    3304.9867    16117.588 
   30300      -254730    49.750481   -254680.25    243.13738    3256.9012    16117.588 
   30400   -254728.59    50.244162   -254678.35    245.55006    3289.2161    16117.588 
   30500   -254728.91    51.646882   -254677.27    252.40535    3382.3831    16117.588 
   30600   -254727.73     50.59306   -254677.13    247.25518    3312.5015    16117.588 
   30700   -254728.37    51.540549   -254676.83    251.88569    3375.7557    16117.588 
   30800    -254730.3    51.106289   -254679.19     249.7634    3347.2318    16117.588 
   30900   -254731.15    50.777172   -254680.37    248.15496    3324.8465    16117.588 
   31000   -254731.28    51.814897   -254679.46    253.22646    3393.4645    16117.588 
   31100   -254729.84    50.541313    -254679.3    247.00228    3309.6437    16117.588 
   31200   -254728.91      50.9327   -254677.98    248.91505    3334.9242    16117.588 
   31300   -254727.01    52.490027   -254674.52    256.52591    3437.8642    16117.588 
   31400   -254727.04    52.552836   -254674.49    256.83287    3442.7201    16117.588 
   31500   -254727.47    51.425276   -254676.04    251.32233    3367.9078    16117.588 
   31600   -254728.31    50.625265   -254677.68    247.41257    3313.9146    16117.588 
   31700   -254731.24    52.938164    -254678.3    258.71602    3468.7769    16117.588 
   31800   -254729.07    50.463536   -254678.61    246.62217    3328.1191    16117.588 
   31900   -254729.91    51.536917   -254678.38    251.86793     3375.504    16117.588 
   32000   -254728.78    51.057532   -254677.72    249.52512    3343.5442    16117.588 
   32100   -254725.56    49.456436    -254676.1    241.70034    3236.6095    16117.588 
   32200   -254725.56    52.150329   -254673.41    254.86576    3415.3239    16117.588 
   32300   -254726.67    52.443848   -254674.23    256.30023    3508.5898    16117.588 
   32400   -254726.81    51.062339   -254675.74    249.54861    3343.7326    16117.588 
   32500   -254728.16    51.413689   -254676.75     251.2657    3391.2598    16117.588 
   32600    -254727.7    50.930297   -254676.77     248.9033     3335.228    16117.588 
   32700   -254729.84    52.561552   -254677.28    256.87547    3443.5219    16117.588 
   32800   -254728.12    49.269307   -254678.85    240.78582    3225.4085    16117.588 
   32900   -254728.62    49.171012   -254679.45    240.30543    3219.1893    16117.588 
   33000   -254729.87    52.002407   -254677.87    254.14285    3406.1242    16117.588 
   33100   -254727.08    50.880334    -254676.2    248.65912    3331.5758    16117.588 
   33200   -254728.31    53.154064   -254675.15    259.77115    3483.2497    16117.588 
   33300   -254727.82    52.342392   -254675.48     255.8044    3462.6368    16117.588 
   33400   -254728.31    50.238065   -254678.07    245.52027    3337.5701    16117.588 
   33500    -254731.1    51.596754    -254679.5    252.16037    3380.1747    16117.588 
   33600      -254730      50.6869   -254679.31    247.71378    3319.9634    16117.588 
   33700   -254727.87     50.24463   -254677.62    245.55235    3290.3562    16117.588 
   33800   -254726.74    51.258261   -254675.48    250.50611    3357.7369    16117.588 
   33900   -254726.48    51.759166   -254674.72    252.95409    3391.0008    16117.588 
   34000   -254727.72    52.142949   -254675.58    254.82969    3503.1977    16117.588 
   34100   -254729.01    51.299742   -254677.71    250.70883    3360.1249    16117.588 
   34200    -254728.6    50.693238   -254677.91    247.74476    3320.2165    16117.588 
   34300   -254729.49    52.151456   -254677.34    254.87127    3416.3268    16117.588 
   34400    -254729.4    51.850572   -254677.55    253.40081    3395.8338    16117.588 
   34500   -254728.59    49.913528   -254678.68    243.93421    3267.0883    16117.588 
   34600   -254729.36    51.557911    -254677.8    251.97053    3426.8985    16117.588 
   34700   -254727.29    51.049184   -254676.24    249.48432    3343.4523    16117.588 
   34800   -254726.48    51.549839   -254674.93    251.93109    3401.8346    16117.588 
   34900   -254727.88    53.424294   -254674.46     261.0918    3500.4093    16117.588 
   35000   -254727.57    50.261769   -254677.31    245.63611    3291.2194    16117.588 
   35100   -254728.23    50.424843    -254677.8    246.43308     3302.251    16117.588 
   35200   -254730.09    52.467297   -254677.62    256.41483      3437.46    16117.588 
   35300    -254728.5    50.810121   -254677.69    248.31598     3328.563    16117.588 
   35400   -254728.24    51.680955   -254676.56    252.57187    3463.0537    16117.588 
   35500   -254727.99    52.169793   -254675.82    254.96089    3417.7289    16117.588 
   35600   -254729.44    53.102769   -254676.34    259.52047    3524.7518    16117.588 
   35700    -254729.1    50.519882   -254678.58    246.89754    3309.7294    16117.588 
   35800   -254730.43    51.106243   -254679.32    249.76317    3348.2632    16117.588 
   35900   -254730.55     51.37386   -254679.17    251.07105    3404.0404    16117.588 
   36000   -254728.91    51.903391   -254677.01    253.65894    3400.6595    16117.588 
   36100   -254726.54     51.90168   -254674.64    253.65058    3399.9464    16117.588 
   36200   -254725.23    50.256991   -254674.97    245.61276    3288.5243    16117.588 
   36300   -254726.76    51.400864   -254675.35    251.20303    3366.4945    16117.588 
   36400   -254727.21    50.200595   -254677.01    245.33715    3287.3259    16117.588 
   36500   -254728.13    49.975487   -254678.15    244.23701    3273.1106    16117.588 
   36600   -254727.92    50.906424   -254677.02    248.78663    3334.8015    16117.588 
   36700    -254728.4    53.889193   -254674.51    263.36383     3533.281    16117.588 
   36800   -254728.69    53.944341   -254674.74    263.63334    3536.4462    16117.588 
   36900   -254726.58     50.08286    -254676.5    244.76176    3280.2578    16117.588 
   37000   -254728.04    50.712181   -254677.33    247.83734    3322.3248    16117.588 
   37100   -254728.68    50.958813   -254677.72    249.04266     3383.937    16117.588 
   37200   -254729.17    50.822535   -254678.34    248.37665    3329.5531    16117.588 
   37300   -254731.22    49.751083   -254681.47    243.14032     3258.685    16117.588 
   37400   -254730.21    49.267384   -254680.94    240.77642    3276.4034    16117.588 
   37500   -254728.78    50.499588   -254678.28    246.79837    3307.1351    16117.588 
   37600   -254728.23    51.357062   -254676.87    250.98896    3554.5625    16117.588 
   37700   -254726.14    50.733537   -254675.41    247.94171    3321.8198    16117.588 
   37800   -254728.06    53.077824   -254674.98    259.39856    3478.5504    16117.588 
   37900   -254726.73    49.971648   -254676.76    244.21825     3272.736    16117.588 
   38000   -254729.41    50.246895   -254679.17    245.56342    3321.9065    16117.588 
   38100   -254728.17    49.963346   -254678.21    244.17768    3271.9891    16117.588 
   38200   -254726.45    49.726804   -254676.72    243.02166    3256.3896    16117.588 
   38300   -254727.89    52.252408   -254675.63    255.36464    3423.5157    16117.588 
   38400   -254727.87    51.809051   -254676.06    253.19789    3418.2007    16117.588 
   38500   -254728.12    50.876344   -254677.25    248.63963    3332.7434    16117.588 
   38600   -254727.96    49.424776   -254678.53    241.54562    3236.4683    16117.588 
   38700   -254727.86    52.045385   -254675.81    254.35289    3409.4016    16117.588 
   38800   -254725.45     51.42225   -254674.03    251.30754     3367.295    16117.588 
   38900   -254726.02     51.01417   -254675.01     249.3132    3379.9083    16117.588 
   39000   -254728.55    51.535127   -254677.01    251.85919    3374.8786    16117.588 
   39100      -254729    51.316159   -254677.68    250.78906    3360.6387    16117.588 
   39200   -254727.46    50.848981   -254676.61     248.5059    3352.2573    16117.588 
   39300   -254728.09    52.052395   -254676.04    254.38715    3408.4719    16117.588 
   39400   -254726.88      51.0838   -254675.79    249.65349    3345.1155    16117.588 
   39500   -254726.86     51.70496   -254675.16    252.68918    3385.5847    16117.588 
   39600   -254726.86    52.484943   -254674.38    256.50107    3480.1316    16117.588 
   39700   -254727.54    52.142787    -254675.4     254.8289     3415.166    16117.588 
   39800    -254727.9    49.858434   -254678.04    243.66496     3264.468    16117.588 
   39900   -254727.89    49.890788      -254678    243.82308     3266.038    16117.588 
   40000   -254727.34    50.162591   -254677.18    245.15142    3284.1665    16117.588 
   40100   -254726.79    51.550426   -254675.24    251.93396    3408.7577    16117.588 
   40200   -254727.56    52.761479    -254674.8    257.85254    3486.8979    16117.588 
   40300   -254728.23    50.609555   -254677.62    247.33579    3313.6036    16117.588 
   40400   -254728.27    49.537576   -254678.73    242.09688    3243.4672    16117.588 
   40500   -254728.23    50.756822   -254677.48     248.0555    3324.0897    16117.588 
   40600   -254727.34    51.238832    -254676.1    250.41115    3396.4979    16117.588 
   40700   -254727.27    52.269938      -254675    255.45031    3424.2975    16117.588 
   40800   -254727.58    51.278804    -254676.3     250.6065    3396.1353    16117.588 
   40900   -254728.58    49.532296   -254679.05    242.07108    3244.4842    16117.588 
   41000   -254729.59    51.647982   -254677.95    252.41072    3410.0695    16117.588 
   41100   -254728.78    51.650239   -254677.13    252.42176    3383.9681    16117.588 
   41200    -254727.9    51.378286   -254676.52    251.09268    3391.7908    16117.588 
   41300   -254726.99    52.291634    -254674.7    255.55634    3426.1577    16117.588 
   41400   -254727.18    52.389585   -254674.79    256.03504    3432.8415    16117.588 
   41500   -254728.52    51.933833   -254676.58    253.80772    3402.3328    16117.588 
   41600   -254728.09    50.008799   -254678.08    244.39981    3274.9551    16117.588 
   41700   -254726.79    49.235865   -254677.55    240.62238    3247.9278    16117.588 
   41800   -254727.31    51.226041   -254676.08    250.34864    3355.8467    16117.588 
   41900   -254726.71    53.101301   -254673.61    259.51329    3544.9926    16117.588 
   42000   -254727.02    54.548964   -254672.47    266.58822    3575.4205    16117.588 
   42100   -254728.34    53.355948   -254674.98    260.75779     3496.012    16117.588 
   42200   -254727.95    51.735686   -254676.21    252.83935    3388.8995    16117.588 
   42300   -254729.83    51.917662   -254677.91    253.72869    3401.8058    16117.588 
   42400    -254730.4    51.121293   -254679.27    249.83672    3348.9723    16117.588 
   42500   -254729.81    50.314784    -254679.5    245.89521    3322.0831    16117.588 
   42600    -254727.6    50.710612   -254676.89    247.82967    3346.2837    16117.588 
   42700   -254728.47    52.811168   -254675.66    258.09537    3460.7306    16117.588 
   42800   -254728.19     51.37705   -254676.81    251.08664     3365.666    16117.588 
   42900   -254729.11    51.131663   -254677.98     249.8874    3348.5177    16117.588 
   43000   -254728.84    50.859371   -254677.98    248.55667    3330.1265    16117.588 
   43100   -254728.34    52.986161   -254675.36    258.95059    3471.9694    16117.588 
   43200    -254727.9    53.008149   -254674.89    259.05805     3473.429    16117.588 
   43300    -254727.7    51.181291   -254676.52    250.12994    3352.3347    16117.588 
   43400   -254726.78    49.317295   -254677.46    241.02034    3229.0045    16117.588 
   43500   -254726.53    50.184891   -254676.34     245.2604    3286.6179    16117.588 
   43600   -254727.85    52.987232   -254674.87    258.95582    3523.2702    16117.588 
   43700   -254726.66    51.497352   -254675.16    251.67457    3373.3159    16117.588 
   43800   -254725.79    50.312748   -254675.48    245.88525    3294.3961    16117.588 
   43900   -254727.32    51.033102   -254676.28    249.40572    3342.5819    16117.588 
   44000   -254727.33    51.214724   -254676.11    250.29333    3354.3404    16117.588 
   44100   -254726.01    49.657165   -254676.35    242.68133    3250.8923    16117.588 
   44200   -254727.19    51.666569   -254675.52    252.50156    3384.7722    16117.588 
   44300   -254726.38    50.924721   -254675.45    248.87605    3335.3379    16117.588 
   44400   -254728.94    51.880692   -254677.06    253.54801    3398.3726    16117.588 
   44500   -254728.12    49.965674   -254678.15    244.18906    3271.8398    16117.588 
   44600   -254727.36    49.987645   -254677.37    244.29643    3272.3435    16117.588 
   44700      -254727    51.897956    -254675.1    253.63238    3399.4549    16117.588 
   44800   -254726.95    51.876339   -254675.08    253.52674     3397.889    16117.588 
   44900   -254727.34    51.552296   -254675.79     251.9431    3426.6105    16117.588 
   45000   -254727.25    50.742034   -254676.51    247.98323    3351.5427    16117.588 
   45100   -254727.18    51.222819   -254675.96    250.33289    3387.3232    16117.588 
   45200   -254725.92    51.194574   -254674.72    250.19486    3352.9131    16117.588 
   45300   -254725.62    52.333765   -254673.29    255.76224    3428.7425    16117.588 
   45400   -254726.61    51.511691    -254675.1    251.74465    3402.4915    16117.588 
   45500    -254727.8    51.136437   -254676.66    249.91073    3349.8073    16117.588 
   45600   -254726.64    50.454399   -254676.19    246.57752    3304.2476    16117.588 
   45700   -254728.26    52.201713   -254676.05    255.11688    3457.5775    16117.588 
   45800   -254726.83    49.737095   -254677.09    243.07196     3257.259    16117.588 
   45900   -254727.53    49.743695   -254677.78    243.10421    3309.7153    16117.588 
   46000   -254728.13    50.730469    -254677.4    247.92672    3323.2983    16117.588 
   46100   -254728.41    51.382649   -254677.03    251.11401    3453.4124    16117.588 
   46200    -254727.3    51.432475   -254675.87    251.35751    3417.6086    16117.588 
   46300   -254725.75    50.751025      -254675    248.02717    3324.6607    16117.588 
   46400   -254727.57    52.585763   -254674.98    256.99379    3446.0897    16117.588 
   46500    -254728.3    50.506149    -254677.8    246.83043    3308.1533    16117.588 
   46600   -254728.93    50.203081   -254678.73     245.3493    3313.0889    16117.588 
   46700   -254728.43     51.32665    -254677.1    250.84033    3388.6152    16117.588 
   46800   -254726.53    51.102149   -254675.43    249.74316    3423.4795    16117.588 
   46900   -254727.99    52.559018   -254675.43    256.86308    3443.5873    16117.588 
   47000   -254727.86    51.393649   -254676.47    251.16777    3365.8675    16117.588 
   47100   -254726.75    49.834037   -254676.92    243.54573    3262.6169    16117.588 
   47200   -254727.26    51.123769   -254676.14    249.84882    3347.9884    16117.588 
   47300   -254725.04    51.431856   -254673.61    251.35449    3420.1707    16117.588 
   47400   -254724.54    50.887889   -254673.66    248.69605    3333.0739    16117.588 
   47500   -254726.57    52.026521   -254674.54     254.2607    3408.8028    16117.588 
   47600   -254727.26    51.198837   -254676.06    250.21569    3353.9186    16117.588 
   47700   -254728.62    51.463763   -254677.16    251.51042    3416.1451    16117.588 
   47800   -254727.13    49.679681   -254677.45    242.79137    3253.4105    16117.588 
   47900   -254727.12    50.255855   -254676.87    245.60721    3291.8373    16117.588 
   48000   -254725.84     51.27428   -254674.57    250.58439    3359.6571    16117.588 
   48100   -254727.81    53.993135   -254673.82    263.87181    3540.0676    16117.588 
   48200   -254727.71    52.112762    -254675.6    254.68217    3414.7376    16117.588 
   48300   -254728.01    50.510125    -254677.5    246.84986    3308.3491    16117.588 
   48400   -254728.15    51.263355   -254676.89      250.531     3357.893    16117.588 
   48500   -254726.87    50.994841   -254675.87    249.21874    3340.2941    16117.588 
   48600   -254726.72    51.119569    -254675.6     249.8283    3348.9663    16117.588 
   48700   -254727.08    51.315478   -254675.76    250.78573    3362.4726    16117.588 
   48800   -254725.39     50.03142   -254675.35    244.51036    3277.2075    16117.588 
   48900   -254726.91    52.113362    -254674.8     254.6851    3415.1672    16117.588 
   49000   -254725.51     52.15689   -254673.36    254.89783    3418.0626    16117.588 
   49100   -254723.87    50.772368    -254673.1    248.13148    3351.0544    16117.588 
   49200   -254725.03     50.92805    -254674.1    248.89232    3367.3776    16117.588 
   49300    -254725.7     50.47854   -254675.22     246.6955    3306.8071    16117.588 
   49400   -254727.19     50.90964   -254676.28    248.80235    3334.9005    16117.588 
   49500   -254726.86    50.258435    -254676.6    245.61982    3291.8517    16117.588 
   49600   -254727.83    51.839586   -254675.99    253.34712    3428.7229    16117.588 
   49700   -254726.06    51.512471   -254674.55    251.74846    3374.9601    16117.588 
   49800   -254725.14    51.591981   -254673.55    252.13704    3419.2842    16117.588 
   49900   -254725.02    51.293904   -254673.73     250.6803    3359.8328    16117.588 
   50000   -254726.54    50.950835   -254675.59    249.00367    3337.8082    16117.588 
   50100   -254728.22     50.80647   -254677.41    248.29814    3328.0262    16117.588 
   50200   -254726.86    49.461193    -254677.4    241.72359    3237.9522    16117.588 
   50300   -254725.96    50.901838   -254675.06    248.76422    3333.7806    16117.588 
   50400   -254725.21     50.55651   -254674.65    247.07655    3310.9668    16117.588 
   50500   -254725.99    52.004017   -254673.99    254.15071     3406.539    16117.588 
   50600   -254726.61    50.854802   -254675.76    248.53435    3330.6527    16117.588 
   50700   -254727.57     50.04464   -254677.52    244.57497    3276.9836    16117.588 
   50800   -254728.58    51.563202   -254677.02     251.9964    3377.3863    16117.588 
   50900   -254726.17    51.241373   -254674.93    250.42357    3356.7842    16117.588 
   51000   -254726.15    51.708746   -254674.44    252.70769    3387.4053    16117.588 
   51100   -254725.79    51.454869   -254674.33    251.46696    3437.0247    16117.588 
   51200    -254726.2    51.440228   -254674.76     251.3954    3369.6779    16117.588 
   51300   -254726.75    50.646096   -254676.11    247.51437    3316.7825    16117.588 
   51400   -254725.54    49.402363   -254676.14    241.43608    3234.2074    16117.588 
   51500   -254725.41    50.991241   -254674.42    249.20114    3366.5517    16117.588 
   51600   -254724.98    52.242372   -254672.74    255.31559    3421.7524    16117.588 
   51700   -254724.21    51.866056   -254672.34    253.47648    3397.3279    16117.588 
   51800   -254723.97    50.799347   -254673.17    248.26333    3327.1995    16117.588 
   51900   -254727.25    50.926907   -254676.32    248.88673    3381.4369    16117.588 
   52000   -254728.05    50.376098   -254677.67    246.19486    3299.4302    16117.588 
   52100    -254727.5     51.27828   -254676.22    250.60394    3359.6665    16117.588 
   52200   -254728.84    53.739501    -254675.1    262.63226    3522.9437    16117.588 
   52300    -254726.4    51.349199   -254675.05    250.95053    3402.0812    16117.588 
   52400   -254727.14    50.360849   -254676.78    246.12033     3324.345    16117.588 
   52500   -254727.11    48.918234   -254678.19    239.07008     3203.951    16117.588 
   52600   -254726.11    50.280015   -254675.83    245.72529    3293.8692    16117.588 
   52700   -254726.67     52.11567   -254674.55    254.69638    3415.4893    16117.588 
   52800   -254726.32    52.149672   -254674.17    254.86255    3441.4594    16117.588 
   52900   -254725.82    49.995625   -254675.82    244.33543    3302.4574    16117.588 
   53000   -254726.25    49.746592    -254676.5    243.11838    3258.5475    16117.588 
   53100   -254726.22    51.164832   -254675.06     250.0495    3383.8224    16117.588 
   53200   -254726.12    52.626485   -254673.49     257.1928    3448.6063    16117.588 
   53300    -254724.7    51.316155   -254673.39    250.78904     3361.051    16117.588 
   53400   -254726.93    51.061865   -254675.87    249.54629    3344.7534    16117.588 
   53500   -254729.34    51.838888    -254677.5    253.34371    3396.3432    16117.588 
   53600    -254728.2    51.283191   -254676.92    250.62794    3359.7675    16117.588 
   53700   -254727.42    52.294921   -254675.13     255.5724    3460.3691    16117.588 
   53800   -254725.58    51.342907   -254674.23    250.91978    3363.4805    16117.588 
   53900   -254727.35    52.491121   -254674.86    256.53126    3439.5325    16117.588 
   54000   -254726.79    49.091727   -254677.69    239.91796    3274.1993    16117.588 
   54100    -254727.9    49.943628   -254677.95    244.08131    3270.5869    16117.588 
   54200   -254726.93    50.835655    -254676.1    248.44077    3330.2408    16117.588 
   54300   -254724.72    50.676719   -254674.05    247.66403    3319.8188    16117.588 
   54400   -254727.87    53.801312   -254674.07    262.93434    3557.6397    16117.588 
   54500   -254726.27    50.493623   -254675.78    246.76922    3307.9604    16117.588 
   54600    -254726.3    50.292858      -254676    245.78805    3293.6675    16117.588 
   54700   -254726.79     51.57072   -254675.22    252.03313    3377.4421    16117.588 
   54800   -254724.64    49.910273   -254674.73     243.9183    3298.7207    16117.588 
   54900   -254725.37    51.783853   -254673.59    253.07474    3476.3751    16117.588 
   55000   -254724.76     53.19709   -254671.56    259.98143    3485.2214    16117.588 
   55100   -254725.28    51.330458   -254673.95    250.85894    3362.1778    16117.588 
   55200    -254726.5    51.372403   -254675.13    251.06393    3364.8323    16117.588 
   55300    -254726.5    51.125628   -254675.37    249.85791    3348.3215    16117.588 
   55400   -254724.82    50.320265    -254674.5    245.92199    3348.2225    16117.588 
   55500   -254723.78    51.003499   -254672.78    249.26105    3340.0864    16117.588 
   55600   -254723.86    53.491592   -254670.37     261.4207    3505.5385    16117.588 
   55700   -254724.24    51.479771   -254672.76    251.58866    3372.7941    16117.588 
   55800   -254724.48    50.106487   -254674.38    244.87723    3281.5519    16117.588 
   55900   -254726.26    51.720975   -254674.54    252.76745     3389.345    16117.588 
   56000   -254726.01     50.37368   -254675.64    246.18304    3299.4051    16117.588 
   56100   -254727.48    50.425061   -254677.05    246.43414     3302.511    16117.588 
   56200   -254728.37    50.894504   -254677.47    248.72838    3334.1995    16117.588 
   56300    -254728.2    51.472741   -254676.72     251.5543    3415.5574    16117.588 
   56400   -254727.11     52.70052   -254674.41    257.55462    3452.6205    16117.588 
   56500   -254726.75     50.73238   -254676.02    247.93605    3321.9463    16117.588 
   56600   -254728.02    50.722454   -254677.29    247.88754    3321.7604    16117.588 
   56700   -254727.64    50.715283   -254676.93     247.8525    3321.2041    16117.588 
   56800   -254728.07    52.028196   -254676.05    254.26888     3407.761    16117.588 
   56900   -254726.88    50.696641   -254676.19    247.76139    3319.4832    16117.588 
   57000   -254727.92    50.698242   -254677.22    247.76922    3319.6879    16117.588 
   57100    -254726.9    50.390113   -254676.51    246.26335    3299.1295    16117.588 
   57200   -254726.43    52.081871   -254674.35     254.5312    3411.2979    16117.588 
   57300   -254726.42    51.958029   -254674.46    253.92597    3403.0838    16117.588 
   57400   -254726.94    50.950929   -254675.99    249.00413    3335.8623    16117.588 
   57500   -254726.69     50.52055   -254676.17    246.90081    3308.4648    16117.588 
   57600   -254726.41    51.421265   -254674.99    251.30273    3368.0198    16117.588 
   57700   -254724.52    51.401909   -254673.12    251.20813    3407.4847    16117.588 
   57800   -254726.66    52.477368   -254674.19    256.46405    3480.8456    16117.588 
   57900   -254727.52    51.201948   -254676.31     250.2309     3354.211    16117.588 
   58000   -254728.61    51.716765   -254676.89    252.74688    3439.1017    16117.588 
   58100   -254727.83    50.937895    -254676.9    248.94043     3336.413    16117.588 
   58200   -254727.28    51.899102   -254675.38    253.63798    3425.5823    16117.588 
   58300    -254726.3    53.109997   -254673.19    259.55579    3502.6699    16117.588 
   58400   -254725.54    52.381686   -254673.16    255.99643    3431.0439    16117.588 
   58500   -254725.61    49.262487   -254676.35    240.75249    3275.9318    16117.588 
   58600   -254726.96    50.234064   -254676.72    245.50071    3286.1419    16117.588 
   58700   -254729.18    52.978223    -254676.2    258.91179    3471.2333    16117.588 
   58800    -254727.2    50.089789   -254677.11    244.79562    3279.9625    16117.588 
   58900   -254728.98    50.084421   -254678.89    244.76939     3353.787    16117.588 
   59000    -254730.6    50.896184   -254679.71    248.73659    3333.4609    16117.588 
   59100   -254727.37    50.886653   -254676.48    248.69001    3332.6006    16117.588 
   59200    -254727.3      51.3289   -254675.97    250.85133    3361.4399    16117.588 
   59300   -254727.91    51.370984   -254676.54      251.057    3364.1565    16117.588 
   59400   -254727.63    49.926053    -254677.7    243.99542    3268.7127    16117.588 
   59500    -254728.9    51.805973   -254677.09    253.18285     3393.014    16117.588 
   59600   -254726.74    52.643294    -254674.1    257.27495    3448.0641    16117.588 
   59700   -254726.89    52.678744   -254674.22     257.4482    3450.8788    16117.588 
   59800   -254727.36    51.661759    -254675.7    252.47805    3383.4248    16117.588 
   59900   -254726.06    49.933429   -254676.13    244.03147    3269.0214    16117.588 
   60000   -254728.01    51.522531   -254676.49    251.79763      3373.95    16117.588 
   60100   -254729.85    49.978049   -254679.88    244.24954    3272.5087    16117.588 
   60200   -254730.71    50.814039   -254679.89    248.33513    3353.8563    16117.588 
   60300   -254727.74    49.813463   -254677.92    243.44518    3261.1454    16117.588 
   60400   -254728.14    51.744653    -254676.4    252.88317    3419.2232    16117.588 
   60500   -254728.45    51.855449    -254676.6    253.42464    3435.0518    16117.588 
   60600   -254729.26    51.935257   -254677.32    253.81468    3402.7934    16117.588 
   60700   -254729.65    50.653822   -254678.99    247.55213    3317.2194    16117.588 
   60800   -254729.44     49.51293   -254679.93    241.97643    3241.3544    16117.588 
   60900   -254729.88    50.884257   -254678.99     248.6783    3360.7264    16117.588 
   61000      -254728    51.168107   -254676.83    250.06551    3375.0759    16117.588 
   61100   -254727.29     50.77053   -254676.52    248.12249    3324.6559    16117.588 
   61200   -254727.76    51.535166   -254676.22    251.85938    3375.1363    16117.588 
   61300   -254727.47    51.113873   -254676.36    249.80046    3346.7584    16117.588 
   61400   -254727.06    51.147087   -254675.91    249.96278    3383.2748    16117.588 
   61500   -254727.58    51.016487   -254676.57    249.32452    3340.6292    16117.588 
   61600   -254729.84    51.407266   -254678.43    251.23431     3367.317    16117.588 
   61700   -254729.54    49.708495   -254679.83    242.93219    3254.8082    16117.588 
   61800   -254728.81    50.221335   -254678.59    245.43851    3288.2739    16117.588 
   61900   -254729.19       53.611   -254675.58    262.00426    3513.0747    16117.588 
   62000   -254728.83    52.764318   -254676.06    257.86641    3456.8501    16117.588 
   62100    -254728.7    51.301488    -254677.4    250.71736    3359.5897    16117.588 
   62200   -254727.81     49.75981   -254678.05    243.18297    3256.7907    16117.588 
   62300   -254726.77    50.495725   -254676.27    246.77949    3305.4517    16117.588 
   62400   -254727.13    53.547994   -254673.58    261.69634     3507.964    16117.588 
   62500   -254727.06    51.276351   -254675.79    250.59452    3357.5974    16117.588 
   62600   -254728.54    51.653561   -254676.89    252.43799    3463.6471    16117.588 
   62700   -254727.59    50.868775   -254676.72    248.60264    3330.9961    16117.588 
   62800   -254727.66    51.418711   -254676.24    251.29025    3367.5069    16117.588 
   62900   -254727.98    52.949121   -254675.03    258.76957    3469.1092    16117.588 
   63000   -254727.24    52.525452   -254674.71    256.69904     3441.501    16117.588 
   63100   -254728.42    50.999912   -254677.42    249.24352    3341.0756    16117.588 
   63200   -254728.67    50.612046   -254678.06    247.34797    3339.1563    16117.588 
   63300   -254728.33    51.550178   -254676.78    251.93274    3377.3395    16117.588 
   63400   -254727.02    51.192261   -254675.83    250.18355    3353.2984    16117.588 
   63500   -254727.16    50.940294   -254676.22    248.95216    3336.2877    16117.588 
   63600    -254727.4    51.264262   -254676.14    250.53543    3358.0194    16117.588 
   63700   -254729.21     52.25191   -254676.96     255.3622    3449.1399    16117.588 
   63800   -254729.05    51.909927   -254677.14    253.69088    3400.4015    16117.588 
   63900   -254729.58    51.002526   -254678.57    249.25629    3341.3054    16117.588 
   64000   -254728.93    49.879987   -254679.05    243.77029    3265.9808    16117.588 
   64100   -254727.35    50.862249   -254676.49    248.57074    3331.5521    16117.588 
   64200   -254725.71    51.311225    -254674.4    250.76495    3388.5783    16117.588 
   64300   -254728.15    53.679149   -254674.47    262.33731    3518.2725    16117.588 
   64400   -254726.98    50.038953   -254676.95    244.54718    3276.6591    16117.588 
   64500   -254727.51      50.0879   -254677.42    244.78639     3278.206    16117.588 
   64600   -254726.87     50.07163    -254676.8    244.70688    3278.2656    16117.588 
   64700   -254728.42    53.461317   -254674.96    261.27274    3550.4297    16117.588 
   64800   -254726.96    51.580614   -254675.38    252.08149    3378.2533    16117.588 
   64900   -254728.74    52.982112   -254675.76     258.9308    3513.9569    16117.588 
   65000   -254727.44    50.976495   -254676.46    249.12907    3360.4596    16117.588 
   65100   -254729.53    52.098078   -254677.44     254.6104    3411.4444    16117.588 
   65200   -254729.62     49.36451   -254680.26    241.25109    3231.2065    16117.588 
   65300      -254731    49.561353   -254681.44    242.21308    3244.5013    16117.588 
   65400   -254730.37    50.232411   -254680.14    245.49264    3288.8439    16117.588 
   65500   -254729.44    50.398611   -254679.04    246.30488    3300.1286    16117.588 
   65600   -254728.01    50.859533   -254677.15    248.55747    3330.4473    16117.588 
   65700    -254727.8    51.597133    -254676.2    252.16222    3406.7743    16117.588 
   65800   -254727.05    50.454771   -254676.59    246.57934    3401.9034    16117.588 
   65900    -254727.6    49.577588   -254678.02    242.29243    3245.3089    16117.588 
   66000   -254729.65    50.152171    -254679.5    245.10049    3283.9403    16117.588 
   66100   -254730.07    51.225127   -254678.84    250.34417    3404.4975    16117.588 
   66200      -254727    50.678068   -254676.32    247.67062    3319.1956    16117.588 
   66300   -254727.74    52.172917   -254675.57    254.97615    3417.6114    16117.588 
   66400   -254728.59    51.162304   -254677.43    250.03715    3350.0352    16117.588 
   66500   -254728.11    50.492317   -254677.61    246.76283    3306.0845    16117.588 
   66600   -254728.56    51.464227    -254677.1    251.51269    3370.5691    16117.588 
   66700    -254728.1     51.26273   -254676.84    250.52795    3356.5669    16117.588 
   66800   -254727.76    51.669415   -254676.09    252.51547    3383.8618    16117.588 
   66900   -254726.83    51.242786   -254675.59    250.43048    3355.7485    16117.588 
   67000   -254726.14    52.456214   -254673.69    256.36067    3518.2811    16117.588 
   67100   -254724.25    51.957633   -254672.29    253.92403    3434.7583    16117.588 
   67200   -254726.98    52.414177   -254674.57    256.15522    3511.4485    16117.588 
   67300   -254727.39    50.529556   -254676.86    246.94483    3307.9496    16117.588 
   67400    -254729.2    51.591527   -254677.61    252.13482    3379.0168    16117.588 
   67500   -254728.52    50.415887    -254678.1    246.38931    3300.7611    16117.588 
   67600   -254727.89    50.673009   -254677.22     247.6459    3317.5038    16117.588 
   67700   -254726.67    51.529733   -254675.14    251.83282    3374.9432    16117.588 
   67800   -254726.55    51.616326   -254674.93    252.25602    3416.7789    16117.588 
   67900   -254728.98    51.000472   -254677.98    249.24626    3340.3534    16117.588 
   68000   -254728.07    49.743184   -254678.33    243.10172    3255.6894    16117.588 
   68100   -254728.03    50.169725   -254677.86    245.18628     3284.769    16117.588 
   68200    -254728.2     51.68803   -254676.51    252.60645    3412.6306    16117.588 
   68300   -254727.25    52.212515   -254675.04    255.16968    3420.1156    16117.588 
   68400   -254726.62    54.561023   -254672.06    266.64715    3575.8618    16117.588 
   68500   -254724.92    52.367477   -254672.55      255.927    3428.9243    16117.588 
   68600   -254726.76    51.631766   -254675.13    252.33148    3381.7088    16117.588 
   68700   -254727.04    50.978164   -254676.06    249.13723    3338.7278    16117.588 
   68800      -254727    49.495969    -254677.5    241.89354    3269.3855    16117.588 
   68900   -254728.95    51.450891    -254677.5    251.44751    3369.8528    16117.588 
   69000   -254729.66    52.538057   -254677.12    256.76064    3441.7081    16117.588 
   69100   -254728.53    51.267712   -254677.26    250.55229    3357.4697    16117.588 
   69200   -254729.82    50.502334   -254679.32    246.81179     3306.869    16117.588 
   69300   -254729.62      50.4165   -254679.21    246.39231     3300.686    16117.588 
   69400      -254729      51.2151   -254677.78    250.29517    3399.9458    16117.588 
   69500   -254726.25    49.921851   -254676.33    243.97489     3268.642    16117.588 
   69600   -254726.59    50.313413   -254676.28    245.88851    3293.8492    16117.588 
   69700   -254727.26     50.39595   -254676.87    246.29187    3323.4967    16117.588 
   69800    -254727.6    50.082464   -254677.51    244.75982    3278.5025    16117.588 
   69900   -254729.32     50.15118   -254679.17    245.09565    3332.1284    16117.588 
   70000   -254729.79    50.393669    -254679.4    246.28073    3299.0159    16117.588 
   70100   -254727.22     50.46474   -254676.75    246.62806    3302.4669    16117.588 
   70200   -254727.97    52.017505   -254675.95    254.21663    3405.2843    16117.588 
   70300   -254726.37    51.077479   -254675.29     249.6226    3342.9502    16117.588 
   70400   -254726.35    51.003345   -254675.35     249.2603    3338.8465    16117.588 
   70500   -254728.39    50.108274   -254678.28    244.88596    3279.7316    16117.588 
   70600   -254728.72    49.782044   -254678.94    243.29163    3258.7784    16117.588 
   70700   -254727.92    50.656951   -254677.27    247.56742    3316.6747    16117.588 
   70800   -254727.47     51.03558   -254676.44    249.41783    3341.4144    16117.588 
   70900   -254727.64    51.278505   -254676.37    250.60504    3357.4704    16117.588 
   71000    -254727.6    50.411836   -254677.19    246.36951    3300.6692    16117.588 
   71100   -254730.21    51.434368   -254678.77    251.36677    3368.0995    16117.588 
   71200   -254729.92    49.392725   -254680.53    241.38898    3233.1179    16117.588 
   71300   -254729.25    50.452389    -254678.8     246.5677    3302.9145    16117.588 
   71400   -254728.17    51.424488   -254676.75    251.31848    3367.6151    16117.588 
   71500    -254726.8    50.600743    -254676.2    247.29272    3313.5029    16117.588 
   71600    -254726.2    49.752106   -254676.45    243.14532    3256.8386    16117.588 
   71700   -254727.81    50.142873   -254677.66    245.05505    3282.2716    16117.588 
   71800   -254729.43    50.891324   -254678.54    248.71283    3331.1852    16117.588 
   71900   -254729.16    50.362017    -254678.8    246.12604    3297.2308    16117.588 
   72000   -254728.57    52.206866   -254676.36    255.14207     3418.931    16117.588 
   72100    -254726.3    51.010829   -254675.29    249.29687    3339.5093    16117.588 
   72200   -254728.18    52.814827   -254675.36    258.11326    3458.6125    16117.588 
   72300   -254728.36    50.611082   -254677.75    247.34325    3397.2937    16117.588 
   72400   -254728.95    49.653673   -254679.29    242.66427    3249.9304    16117.588 
   72500   -254730.25    51.650985    -254678.6     252.4254    3382.3023    16117.588 
   72600   -254728.71    50.997396   -254677.72    249.23122    3339.4385    16117.588 
   72700   -254728.01    50.920377   -254677.09    248.85482    3334.1008    16117.588 
   72800   -254725.94    48.917958   -254677.02    239.06873     3200.247    16117.588 
   72900   -254728.02    52.201975   -254675.82    255.11817    3418.7254    16117.588 
   73000   -254727.13    52.685503   -254674.44    257.48123    3494.5256    16117.588 
   73100   -254726.61     50.68678   -254675.92     247.7132    3318.6194    16117.588 
   73200   -254729.11    50.958848   -254678.15    249.04283    3335.9875    16117.588 
   73300   -254729.39    50.537126   -254678.86    246.98182    3308.2152    16117.588 
   73400   -254730.24    52.230915   -254678.01     255.2596    3420.7392    16117.588 
   73500   -254728.92    52.409239   -254676.51    256.13109    3479.2872    16117.588 
   73600   -254726.37    53.273055    -254673.1    260.35268    3514.2332    16117.588 
   73700   -254726.43    51.517527   -254674.92    251.77317    3400.9972    16117.588 
   73800   -254727.15    51.045291    -254676.1    249.46529    3392.2121    16117.588 
   73900   -254728.49    52.015305   -254676.47    254.20588     3406.642    16117.588 
   74000   -254729.98    51.407104   -254678.58    251.23352    3367.1467    16117.588 
   74100   -254729.27    48.832295   -254680.44    238.65008    3196.2539    16117.588 
   74200   -254729.74    49.990973   -254679.75    244.31269    3340.9334    16117.588 
   74300   -254728.32    49.905381   -254678.41     243.8944    3267.8424    16117.588 
   74400   -254727.71    50.650404   -254677.06    247.53542    3341.6664    16117.588 
   74500   -254727.05     50.76695   -254676.29      248.105    3323.9783    16117.588 
   74600   -254727.06    51.729868   -254675.33    252.81091    3387.7656    16117.588 
   74700    -254727.6    53.058718   -254674.54    259.30518    3502.6773    16117.588 
   74800   -254729.67    52.851683   -254676.82    258.29337    3502.8899    16117.588 
   74900   -254728.67    49.589368   -254679.08       242.35    3278.0915    16117.588 
   75000   -254729.46    50.400231   -254679.06    246.31279    3300.3173    16117.588 
   75100   -254728.28    49.653962   -254678.63    242.66568    3250.6077    16117.588 
   75200   -254728.73    52.358103   -254676.37    255.88118    3429.8912    16117.588 
   75300      -254727    50.940623   -254676.06    248.95377    3335.6687    16117.588 
   75400   -254727.84    49.757074   -254678.08     243.1696    3256.8398    16117.588 
   75500   -254728.83    50.413366   -254678.42    246.37699    3300.6491    16117.588 
   75600   -254730.21    51.758138   -254678.46    252.94907     3412.273    16117.588 
   75700   -254728.88    51.092703   -254677.79      249.697    3345.3377    16117.588 
   75800   -254727.86    50.098891   -254677.76     244.8401    3309.9756    16117.588 
   75900   -254728.65    52.029392   -254676.62    254.27473    3408.3428    16117.588 
   76000   -254727.24    51.791774   -254675.45    253.11346    3391.4214    16117.588 
   76100   -254726.84    51.017701   -254675.82    249.33045    3340.6752    16117.588 
   76200   -254729.27    50.909599   -254678.36    248.80215    3333.9552    16117.588 
   76300   -254729.39    50.885988   -254678.51    248.68676    3368.8811    16117.588 
   76400   -254727.85    49.321554   -254678.53    241.04115    3227.6185    16117.588 
   76500   -254729.33    52.170169   -254677.16    254.96272    3474.6962    16117.588 
   76600   -254728.76    50.816571   -254677.94    248.34751    3327.1266    16117.588 
   76700   -254730.01    51.514679   -254678.49    251.75926    3372.5988    16117.588 
   76800   -254729.58     51.40437   -254678.18    251.22016    3365.5842    16117.588 
   76900   -254728.63    50.339277   -254678.29    246.01491    3295.2661    16117.588 
   77000   -254729.07    51.430157   -254677.64    251.34618    3367.6696    16117.588 
   77100   -254730.55    53.324374   -254677.22    260.60348    3494.1296    16117.588 
   77200   -254728.65    49.684976   -254678.97    242.81724    3251.8823    16117.588 
   77300   -254730.08    49.588465   -254680.49    242.34559    3245.7296    16117.588 
   77400   -254730.37    50.790945   -254679.58    248.22227    3419.9563    16117.588 
   77500   -254729.22    51.821668    -254677.4    253.25955    3481.0701    16117.588 
   77600   -254727.42    50.707434   -254676.72    247.81414    3347.0943    16117.588 
   77700   -254726.73    50.178253   -254676.55    245.22796    3284.3435    16117.588 
   77800   -254727.96    51.426262   -254676.53    251.32715    3367.9498    16117.588 
   77900   -254728.81    52.234463   -254676.57    255.27694    3421.7954    16117.588 
   78000   -254729.74    50.727251   -254679.01    247.91099    3321.5576    16117.588 
   78100   -254728.95    49.541437   -254679.41    242.11575    3243.3424    16117.588 
   78200   -254729.31    50.619167    -254678.7    247.38277    3314.4313    16117.588 
   78300   -254728.43    52.175369   -254676.25    254.98813     3418.057    16117.588 
   78400   -254727.01    51.643274   -254675.37    252.38772    3381.9901    16117.588 
   78500   -254729.53    52.111235   -254677.42    254.67471    3437.0126    16117.588 
   78600   -254728.79    49.952414   -254678.84    244.12425     3270.051    16117.588 
   78700   -254729.01    50.587598   -254678.42    247.22848    3311.4402    16117.588 
   78800   -254728.96     51.74842   -254677.21    252.90158    3388.7242    16117.588 
   78900   -254728.14    52.380877   -254675.76    255.99248    3430.5655    16117.588 
   79000   -254728.46    53.404435   -254675.06    260.99475    3530.1133    16117.588 
   79100   -254729.31    51.784232   -254677.52     253.0766    3389.8799    16117.588 
   79200    -254729.5    50.123466   -254679.38    244.96021    3280.9082    16117.588 
   79300   -254729.91    50.616296   -254679.29    247.36874    3314.3085    16117.588 
   79400   -254729.83    51.909377   -254677.92     253.6882    3399.3937    16117.588 
   79500   -254731.14    53.955172   -254677.19    263.68628    3588.5899    16117.588 
   79600    -254729.9    50.934298   -254678.96    248.92285    3335.3435    16117.588 
   79700   -254731.07    49.908914   -254681.16    243.91166    3326.3129    16117.588 
   79800   -254731.27     50.77737   -254680.49    248.15593     3324.446    16117.588 
   79900   -254729.95    50.864194   -254679.09    248.58025    3354.1242    16117.588 
   80000   -254731.04    52.605248   -254678.43    257.08902    3445.5008    16117.588 
   80100   -254730.95    51.632669   -254679.32    252.33589    3380.5652    16117.588 
   80200   -254730.84    48.994912   -254681.85    239.44481    3205.8498    16117.588 
   80300   -254732.08    50.643906   -254681.44    247.50367     3315.971    16117.588 
   80400   -254729.46    50.824123   -254678.63    248.38441    3327.0916    16117.588 
   80500   -254731.15    53.042519   -254678.11    259.22602    3474.8549    16117.588 
   80600   -254729.46    51.305802   -254678.15    250.73845    3359.3984    16117.588 
   80700   -254728.92    51.609319   -254677.31    252.22177    3379.7927    16117.588 
   80800   -254729.31    53.436726   -254675.88    261.15256    3567.7761    16117.588 
   80900   -254728.37    51.283933   -254677.09    250.63157    3357.9248    16117.588 
   81000   -254728.78    49.801203   -254678.98    243.38526    3259.1049    16117.588 
   81100   -254729.35    50.351903      -254679    246.07661    3324.9059    16117.588 
   81200   -254728.13    50.539489   -254677.59    246.99337    3307.4652    16117.588 
   81300   -254728.49    51.943893   -254676.54    253.85688    3400.3714    16117.588 
   81400   -254728.75    52.537615   -254676.22    256.75848    3464.7346    16117.588 
   81500   -254728.92     50.61332   -254678.31    247.35419    3312.7939    16117.588 
   81600    -254729.8    50.235352   -254679.57    245.50701    3287.5172    16117.588 
   81700   -254730.13     50.49867   -254679.63    246.79388    3305.9668    16117.588 
   81800    -254730.2    52.681332   -254677.52    257.46085    3450.1974    16117.588 
   81900   -254729.48    52.323059   -254677.16    255.70992    3425.9657    16117.588 
   82000   -254727.73    49.850913   -254677.88     243.6282    3332.0551    16117.588 
   82100   -254728.18    50.567096   -254677.61    247.12829    3336.8821    16117.588 
   82200   -254729.39    53.308184   -254676.08    260.52436    3521.7398    16117.588 
   82300   -254728.17    51.977816    -254676.2    254.02267    3404.1064    16117.588 
   82400   -254728.97    50.924748   -254678.05    248.87618    3333.8547    16117.588 
   82500   -254730.04    50.538815    -254679.5    246.99008     3308.356    16117.588 
   82600   -254730.03    51.262743   -254678.77    250.52801     3357.116    16117.588 
   82700   -254728.82    51.590958   -254677.23    252.13204     3405.675    16117.588 
   82800    -254727.8    53.091411    -254674.7    259.46496    3478.2418    16117.588 
   82900   -254726.48    53.751667   -254672.72    262.69172    3550.0317    16117.588 
   83000   -254728.61    53.497266   -254675.12    261.44843    3504.8728    16117.588 
   83100   -254728.04    51.170106   -254676.87    250.07528    3351.3982    16117.588 
   83200    -254728.4    50.415556   -254677.99    246.38769    3301.1353    16117.588 
   83300   -254730.48    51.978965    -254678.5    254.02828    3404.5173    16117.588 
   83400   -254729.58    50.236593   -254679.34    245.51307    3288.2631    16117.588 
   83500   -254728.51    50.918148   -254677.59    248.84393    3334.3015    16117.588 
   83600   -254729.05    53.348548    -254675.7    260.72162    3495.7775    16117.588 
   83700   -254729.26    52.710437   -254676.55    257.60309    3453.3232    16117.588 
   83800    -254727.9    49.616715   -254678.29    242.48365    3248.0472    16117.588 
   83900   -254728.91    51.086724   -254677.82    249.66778    3345.0007    16117.588 
   84000   -254729.37    51.973245    -254677.4    254.00033    3404.0454    16117.588 
   84100   -254728.42    51.551856   -254676.87    251.94094    3376.0515    16117.588 
   84200   -254727.48    52.409286   -254675.07    256.13132    3433.0939    16117.588 
   84300   -254726.66    51.344614   -254675.31    250.92813    3388.0342    16117.588 
   84400   -254727.76    50.978702   -254676.79    249.13986    3338.0884    16117.588 
   84500   -254728.93    50.338776   -254678.59    246.01246    3294.7894    16117.588 
   84600   -254730.66    50.862715   -254679.79    248.57302    3329.8205    16117.588 
   84700   -254731.32    50.962707   -254680.36    249.06169    3360.9206    16117.588 
   84800   -254730.28    48.165101   -254682.12    235.38941     3151.317    16117.588 
   84900   -254730.51    49.766522   -254680.74    243.21577    3256.7095    16117.588 
   85000   -254728.47    50.269649    -254678.2    245.67463    3290.8261    16117.588 
   85100   -254728.73    52.109538   -254676.62    254.66641    3411.7528    16117.588 
   85200   -254727.54    51.587483   -254675.95    252.11506    3377.2605    16117.588 
   85300   -254728.01     52.52981   -254675.48    256.72034    3440.2587    16117.588 
   85400    -254726.7    51.236308   -254675.46    250.39882    3354.6079    16117.588 
   85500   -254727.55    50.709257   -254676.84    247.82305    3319.6354    16117.588 
   85600   -254729.17    50.588457   -254678.58    247.23268    3311.4104    16117.588 
   85700   -254729.55     50.42614   -254679.12    246.43942    3300.6955    16117.588 
   85800   -254730.11    51.047727   -254679.06     249.4772    3342.4825    16117.588 
   85900   -254727.73    51.431993    -254676.3    251.35516    3366.4875    16117.588 
   86000   -254727.07     51.59774   -254675.48    252.16519    3379.3238    16117.588 
   86100   -254729.18    52.392739   -254676.79    256.05045    3491.3233    16117.588 
   86200   -254729.97    51.220051   -254678.75    250.31937    3354.2849    16117.588 
   86300   -254729.79    50.435742   -254679.36    246.48634    3302.1198    16117.588 
   86400   -254728.83    50.343807   -254678.49    246.03704    3295.6667    16117.588 
   86500   -254728.51    51.085696   -254677.43    249.66275    3345.0888    16117.588 
   86600   -254727.69    50.751982   -254676.94    248.03185    3322.8953    16117.588 
   86700   -254726.85    50.852256   -254675.99     248.5219    3329.0782    16117.588 
   86800   -254728.02    49.460855   -254678.56    241.72193    3237.0255    16117.588 
   86900   -254728.59    49.199462   -254679.39    240.44447    3220.1491    16117.588 
   87000   -254728.76    50.107005   -254678.65    244.87976    3279.7792    16117.588 
   87100   -254729.19    52.309767   -254676.88    255.64496     3475.747    16117.588 
   87200   -254728.09    51.389688    -254676.7    251.14841    3365.0566    16117.588 
   87300   -254727.78    51.379492   -254676.41    251.09858     3364.886    16117.588 
   87400   -254728.22    52.198887   -254676.02    255.10307    3418.9954    16117.588 
   87500   -254728.43    51.076834   -254677.35    249.61945    3344.4781    16117.588 
   87600   -254728.16    49.406733   -254678.75    241.45744    3284.9934    16117.588 
   87700   -254729.35    49.960115   -254679.39    244.16189    3346.8239    16117.588 
   87800   -254728.92    49.720896    -254679.2    242.99279    3254.6419    16117.588 
   87900   -254728.07    51.539585   -254676.53    251.88098    3374.5284    16117.588 
   88000   -254729.64    53.404046   -254676.24    260.99285     3499.159    16117.588 
   88100   -254728.17    51.147456   -254677.02    249.96459    3348.5922    16117.588 
   88200   -254728.98    51.675612   -254677.31    252.54575    3384.2581    16117.588 
   88300   -254728.61    51.814376    -254676.8    253.22392    3425.6313    16117.588 
[...]
  403100   -254726.56    49.220113   -254677.34     240.5454     3225.812    16117.588 
  403200   -254726.87    49.443967   -254677.43     241.6394    3294.5786    16117.588 
  403300   -254726.45    51.282562   -254675.17    250.62487    3361.7143    16117.588 
  403400   -254725.28    51.532517   -254673.75    251.84643    3378.0976    16117.588 
  403500   -254725.51    51.612145   -254673.89    252.23558    3434.4646    16117.588 
  403600   -254727.46    52.645569   -254674.81    257.28607      3452.65    16117.588 
  403700   -254727.02    50.399581   -254676.62    246.30962    3303.2594    16117.588 
  403800   -254726.73    49.777618   -254676.95       243.27     3262.422    16117.588 
  403900   -254726.89    51.545319   -254675.35      251.909    3380.1262    16117.588 
  404000   -254725.61    52.301832   -254673.31    255.60618    3457.8063    16117.588 
  404100   -254724.73    50.942548   -254673.79    248.96317    3340.3359    16117.588 
  404200   -254726.31    51.732049   -254674.58    252.82157    3391.8659    16117.588 
  404300   -254727.27    51.546451   -254675.72    251.91453    3379.5265    16117.588 
  404400   -254727.64    49.776885   -254677.86    243.26642    3261.8701    16117.588 
  404500    -254727.9    50.000166    -254677.9    244.35762    3276.9267    16117.588 
  404600   -254727.75    51.817302   -254675.93    253.23822    3397.6039    16117.588 
  404700   -254727.88    52.052928   -254675.82    254.38975    3413.3339    16117.588 
  404800   -254727.72    51.434345   -254676.28    251.36665    3372.2019    16117.588 
  404900   -254727.73    51.103257   -254676.63    249.74858    3349.6949    16117.588 
  405000   -254728.13    51.951238   -254676.18    253.89278    3469.3928    16117.588 
  405100   -254727.88     51.83207   -254676.05    253.31039    3398.6897    16117.588 
  405200   -254728.67    51.395393   -254677.27    251.17629    3369.7344    16117.588 
  405300   -254729.34    50.466847   -254678.87    246.63836    3353.5935    16117.588 
  405400   -254728.32    49.600749   -254678.72    242.40562    3251.5459    16117.588 
  405500   -254728.07    52.018808   -254676.05      254.223    3434.9485    16117.588 
  405600   -254727.87    51.618433   -254676.25    252.26631     3385.047    16117.588 
  405700   -254727.92    51.378417   -254676.54    251.09332    3425.0767    16117.588 
  405800   -254729.24    52.083319   -254677.15    254.53828     3416.827    16117.588 
  405900   -254728.02    49.190229   -254678.83    240.39935    3223.8708    16117.588 
  406000   -254728.46    48.785301   -254679.68    238.42041     3197.805    16117.588 
  406100   -254728.94    50.524934   -254678.41    246.92223    3312.4219    16117.588 
  406200   -254726.36    50.244007   -254676.11    245.54931     3293.478    16117.588 
  406300      -254727    51.735333   -254675.26    252.83762    3417.9652    16117.588 
  406400   -254726.77    50.666978    -254676.1    247.61643    3321.5811    16117.588 
  406500   -254727.86    50.804253   -254677.06     248.2873    3331.2617    16117.588 
  406600   -254727.62    49.222571   -254678.39    240.55741    3226.3046    16117.588 
  406700   -254728.56     50.04254   -254678.52    244.56471    3280.7131    16117.588 
  406800    -254727.9    51.566615   -254676.34    252.01307    3447.4979    16117.588 
  406900   -254727.39    52.323519   -254675.06    255.71216    3432.4639    16117.588 
  407000   -254725.44    51.080368   -254674.36    249.63672    3392.8599    16117.588 
  407100   -254724.37    50.952915   -254673.42    249.01384    3341.5743    16117.588 
  407200   -254725.72     53.91923   -254671.81    263.51062    3538.0668    16117.588 
  407300   -254724.86     51.68354   -254673.18     252.5845    3389.9151    16117.588 
  407400    -254726.2    51.591478   -254674.61    252.13458    3383.7575    16117.588 
  407500   -254727.32    51.374532   -254675.95    251.07434    3369.6298    16117.588 
  407600   -254727.73     52.55086   -254675.18    256.82321    3447.3454    16117.588 
  407700   -254727.35    52.262078   -254675.09    255.41189    3457.2938    16117.588 
  407800   -254726.91    50.678884   -254676.23    247.67461    3323.2323    16117.588 
  407900   -254728.86    51.333437   -254677.52     250.8735    3391.5556    16117.588 
  408000   -254728.89    51.416579   -254677.47    251.27983    3372.0473    16117.588 
  408100   -254728.12    51.642172   -254676.48    252.38233    3474.3557    16117.588 
  408200   -254727.56    51.896958   -254675.66     253.6275    3403.1489    16117.588 
  408300   -254725.07    50.852523   -254674.21    248.52321    3333.7993    16117.588 
  408400   -254724.11    50.515806    -254673.6    246.87763    3311.3918    16117.588 
  408500   -254725.59    52.368167   -254673.22    255.93037    3434.5255    16117.588 
  408600   -254727.03     51.02343   -254676.01    249.35845    3345.6179    16117.588 
  408700   -254726.58    49.608392   -254676.97    242.44297    3251.3472    16117.588 
  408800   -254727.87    51.066254   -254676.81    249.56774    3348.3909    16117.588 
  408900   -254725.73    50.745094   -254674.98    247.99819    3326.6049    16117.588 
  409000   -254725.58    51.983764   -254673.59    254.05174     3408.307    16117.588 
  409100   -254725.78    50.995406   -254674.78     249.2215    3370.5999    16117.588 
  409200   -254727.35    52.282093   -254675.07    255.50971    3427.7487    16117.588 
  409300      -254728    52.095834    -254675.9    254.59944    3416.1842    16117.588 
  409400   -254726.89    50.737924   -254676.15    247.96315    3325.8402    16117.588 
  409500    -254726.1    51.127345   -254674.97     249.8663    3412.1826    16117.588 
  409600    -254723.4    50.721671   -254672.68    247.88372    3354.3724    16117.588 
  409700   -254724.21    51.476151   -254672.73    251.57096    3374.5779    16117.588 
  409800   -254725.45    51.789549   -254673.66    253.10258    3395.6718    16117.588 
  409900    -254727.1    51.357833   -254675.75    250.99273    3367.4711    16117.588 
  410000   -254727.48    51.440467   -254676.04    251.39657    3372.7761    16117.588 
  410100   -254729.03    51.555209   -254677.48    251.95733    3380.8028    16117.588 
  410200   -254729.58    51.629761   -254677.95    252.32168    3421.8648    16117.588 
  410300   -254729.33     50.39762   -254678.94    246.30004    3303.9922    16117.588 
  410400   -254726.15    48.614715   -254677.54    237.58673    3185.2694    16117.588 
  410500   -254726.23    51.618148   -254674.61    252.26492    3384.7122    16117.588 
  410600   -254726.21    52.255036   -254673.96    255.37748     3426.046    16117.588 
  410700   -254725.87    50.458568   -254675.41     246.5979    3360.2987    16117.588 
  410800   -254726.38    49.698552   -254676.68    242.88359    3280.8698    16117.588 
  410900   -254727.26    50.298479   -254676.96    245.81552    3298.3181    16117.588 
  411000   -254727.03    51.667923   -254675.36    252.50818    3388.2092    16117.588 
  411100   -254725.59    52.573339   -254673.01    256.93307    3448.4195    16117.588 
  411200    -254724.9    50.612058   -254674.29    247.34802    3318.1072    16117.588 
  411300   -254726.82    50.622837    -254676.2     247.4007    3319.5076    16117.588 
  411400   -254726.91     50.65975   -254676.25     247.5811    3320.5437    16117.588 
  411500   -254727.75    51.332163   -254676.42    250.86727    3366.1182    16117.588 
  411600    -254726.6    50.195949    -254676.4    245.31444    3290.6515    16117.588 
  411700   -254727.27    51.478794   -254675.79    251.58388    3434.1256    16117.588 
  411800   -254726.96     52.57855   -254674.38    256.95854    3471.4684    16117.588 
  411900   -254726.87    52.732669   -254674.14    257.71174    3458.9548    16117.588 
  412000   -254727.71    50.784364   -254676.93    248.19011    3329.7341    16117.588 
  412100   -254729.26    51.613082   -254677.65    252.24017    3385.1448    16117.588 
  412200   -254730.35    51.170129   -254679.18    250.07539    3355.7944    16117.588 
  412300   -254727.92    49.104079   -254678.81    239.97832    3218.4051    16117.588 
  412400   -254728.61    52.797061   -254675.81    258.02643    3462.0849    16117.588 
  412500   -254727.16    50.617406   -254676.54    247.37416     3318.516    16117.588 
  412600   -254729.13    51.584675   -254677.54    252.10133    3382.2208    16117.588 
  412700   -254728.42     50.48878   -254677.93    246.74555    3350.2593    16117.588 
  412800   -254727.39    51.743304   -254675.65    252.87658    3393.5898    16117.588 
  412900   -254725.66    51.838618   -254673.83    253.34239    3399.8322    16117.588 
  413000    -254727.5     52.27025   -254675.23    255.45183    3428.1286    16117.588 
  413100   -254728.11    51.727849   -254676.39    252.80105    3392.1643    16117.588 
  413200   -254728.81    51.508696    -254677.3    251.73001    3378.3949    16117.588 
  413300   -254726.35    47.980129   -254678.37    234.48543    3144.0051    16117.588 
  413400   -254727.74    49.373792   -254678.36    241.29645    3236.5417    16117.588 
  413500   -254727.39    51.828906   -254675.56    253.29492    3399.6355    16117.588 
  413600    -254726.7    50.954777   -254675.74    249.02294     3341.298    16117.588 
  413700   -254727.55    50.483174   -254677.07    246.71815    3309.6439    16117.588 
  413800   -254729.08    51.129336   -254677.95    249.87603    3407.1003    16117.588 
  413900   -254727.48    49.166002   -254678.32    240.28095     3223.033    16117.588 
  414000   -254727.91    50.691837   -254677.21    247.73791    3324.3504    16117.588 
  414100   -254726.47    49.630849   -254676.84    242.55272    3277.4929    16117.588 
  414200   -254728.17    52.400637   -254675.76    256.08905    3490.6787    16117.588 
  414300   -254728.87     50.95197   -254677.92    249.00922    3368.1313    16117.588 
  414400   -254730.26    50.522882   -254679.73    246.91221    3313.6532    16117.588 
  414500   -254729.16    50.207647   -254678.95    245.37161    3292.6415    16117.588 
  414600    -254728.1    50.620337   -254677.48    247.38848    3319.6961    16117.588 
  414700      -254729    51.918286   -254677.08    253.73174    3455.4148    16117.588 
  414800      -254728    51.205437    -254676.8    250.24795    3358.8715    16117.588 
  414900   -254729.56    49.966384   -254679.59    244.19253    3276.1025    16117.588 
  415000   -254728.16    48.800653   -254679.36    238.49544    3198.0292    16117.588 
  415100   -254727.82    50.800365   -254677.01    248.26831    3331.3062    16117.588 
  415200   -254727.61    51.375068   -254676.23    251.07696     3369.018    16117.588 
  415300   -254728.82    51.306503   -254677.52    250.74187    3364.3876    16117.588 
  415400   -254728.14     49.38701   -254678.75    241.36104    3236.9285    16117.588 
  415500      -254728    50.837752   -254677.16    248.45102    3333.4651    16117.588 
  415600   -254728.62    53.582115   -254675.04    261.86309    3545.3739    16117.588 
  415700   -254728.09    51.578725   -254676.51    252.07226     3406.741    16117.588 
  415800    -254729.9    51.770001   -254678.13    253.00705    3424.9751    16117.588 
  415900   -254729.89    50.754329   -254679.13    248.04332    3328.4907    16117.588 
  416000    -254730.2    51.725597   -254678.47    252.79004    3393.0162    16117.588 
  416100   -254728.59    52.831248   -254675.76    258.19351    3466.1992    16117.588 
  416200   -254726.03    51.098685   -254674.93    249.72624    3351.8405    16117.588 
  416300   -254726.72    50.956445   -254675.76    249.03109    3342.4889    16117.588 
  416400   -254727.07    50.301311   -254676.76    245.82936    3298.6561    16117.588 
  416500   -254728.13    50.517113   -254677.61    246.88401     3313.201    16117.588 
  416600   -254727.64    49.996216   -254677.65    244.33832    3278.4858    16117.588 
  416700    -254728.8    52.046649   -254676.75    254.35906    3414.1059    16117.588 
  416800   -254728.67    53.460555   -254675.21    261.26902    3550.3926    16117.588 
  416900   -254723.71    51.919982   -254671.79    253.74003    3404.9108    16117.588 
  417000    -254723.8    51.127958   -254672.68     249.8693    3376.7951    16117.588 
  417100   -254725.46    51.557301    -254673.9    251.96756    3381.9475    16117.588 
  417200   -254727.33    51.442419   -254675.89    251.40611    3374.7415    16117.588 
  417300   -254727.91    51.170541   -254676.74    250.07741    3356.0094    16117.588 
  417400   -254728.67    51.733887   -254676.93    252.83055    3393.5967    16117.588 
  417500    -254728.2    53.342173   -254674.86    260.69047    3500.4372    16117.588 
  417600   -254726.63    52.853426   -254673.77    258.30189    3467.2951    16117.588 
  417700   -254726.17    50.589534   -254675.58    247.23795    3317.3262    16117.588 
  417800   -254727.49    51.331781   -254676.16    250.86541    3400.0872    16117.588 
  417900    -254727.1    50.881505   -254676.22    248.66485    3336.9424    16117.588 
  418000   -254728.69    52.275117   -254676.41    255.47562    3429.3636    16117.588 
  418100   -254728.29    51.103724   -254677.19    249.75086    3351.6452    16117.588 
  418200   -254728.32    51.040485   -254677.28    249.44181    3346.7509    16117.588 
  418300    -254728.8    51.188302   -254677.61    250.16421    3410.7509    16117.588 
  418400   -254729.42    49.667176   -254679.75    242.73026    3255.4231    16117.588 
  418500   -254729.66    48.537534   -254681.13    237.20954    3180.6585    16117.588 
  418600   -254729.03    50.184453   -254678.85    245.25826    3289.5422    16117.588 
  418700   -254729.81    52.064626   -254677.75    254.44692    3414.8404    16117.588 
  418800   -254727.49    49.496719   -254677.99    241.89721    3270.6623    16117.588 
  418900   -254727.23     50.10936   -254677.12    244.89127    3285.7373    16117.588 
  419000   -254728.37    53.467285    -254674.9    261.30191    3507.9477    16117.588 
  419100   -254728.11    52.612578    -254675.5    257.12484    3450.8118    16117.588 
  419200   -254727.28    51.401772   -254675.88    251.20746    3370.4725    16117.588 
  419300   -254728.15    49.993197   -254678.16    244.32356    3312.9732    16117.588 
  419400   -254728.97    49.030112   -254679.94    239.61684      3214.09    16117.588 
  419500   -254730.87    52.488688   -254678.38    256.51937     3442.632    16117.588 
  419600   -254728.78    51.477819    -254677.3    251.57912    3375.7668    16117.588 
  419700   -254728.11    50.326375   -254677.78    245.95185    3343.7531    16117.588 
  419800    -254728.4    49.986759   -254678.42     244.2921    3277.2496    16117.588 
  419900   -254728.96    51.116062   -254677.84    249.81116    3351.7443    16117.588 
  420000   -254728.26    52.117554   -254676.14    254.70559    3417.9203    16117.588 
  420100   -254729.06    54.101736   -254674.95    264.40256    3549.5556    16117.588 
  420200   -254729.16     51.73787   -254677.42    252.85002    3421.2297    16117.588 
  420300   -254730.22    51.267109   -254678.95    250.54935    3362.6208    16117.588 
  420400   -254730.22     51.35948   -254678.86    251.00078    3368.7344    16117.588 
  420500   -254729.12    50.399631   -254678.73    246.30987    3304.8928    16117.588 
  420600   -254729.27    52.576583   -254676.69    256.94892    3449.1126    16117.588 
  420700   -254729.22    53.824287    -254675.4    263.04662    3531.3637    16117.588 
  420800   -254728.23    52.224264      -254676    255.22709    3424.3449    16117.588 
  420900   -254726.59    47.913132   -254678.68    234.15801    3140.0131    16117.588 
  421000   -254729.78     51.73268   -254678.05    252.82465    3393.7796    16117.588 
  421100   -254730.26    52.517642   -254677.74    256.66087    3445.3338    16117.588 
  421200   -254730.73    50.733638      -254680     247.9422    3327.3185    16117.588 
  421300   -254729.62    48.814536   -254680.81    238.56329    3200.5086    16117.588 
  421400   -254729.04    51.491432   -254677.55    251.64564    3414.3939    16117.588 
  421500   -254728.18    51.096191   -254677.08    249.71405     3350.973    16117.588 
  421600   -254727.48     50.75988   -254676.72    248.07045    3329.2253    16117.588 
  421700   -254726.69    51.190508    -254675.5    250.17499    3356.8426    16117.588 
  421800   -254728.14    53.191897   -254674.95    259.95605    3489.6737    16117.588 
  421900   -254728.62    51.567124   -254677.05    252.01556    3382.4852    16117.588 
  422000    -254728.9    50.066579   -254678.83    244.68219    3323.3068    16117.588 
  422100   -254729.14    51.580226   -254677.56    252.07959    3383.3841    16117.588 
  422200   -254727.52    51.431052   -254676.09    251.35056    3373.6748    16117.588 
  422300    -254726.7    51.850216   -254674.85    253.39907    3400.4965    16117.588 
  422400   -254727.11    52.295505   -254674.81    255.57526    3509.2471    16117.588 
  422500   -254729.42    52.138279   -254677.28    254.80687    3419.1187    16117.588 
  422600   -254729.25    49.832253   -254679.42    243.53701    3266.1496    16117.588 
  422700   -254730.15    51.388236   -254678.76    251.14131    3369.0684    16117.588 
  422800   -254728.82    51.569044   -254677.25    252.02494    3381.8166    16117.588 
  422900   -254728.83    52.573031   -254676.25    256.93157    3448.2587    16117.588 
  423000   -254727.69    51.040792   -254676.65     249.4433    3347.1719    16117.588 
  423100   -254728.33    49.115134   -254679.21    240.03235    3219.0795    16117.588 
  423200   -254729.81    51.093847   -254678.72    249.70259    3351.2217    16117.588 
  423300   -254730.19    53.198646   -254676.99    259.98903    3491.0047    16117.588 
  423400   -254729.86    52.037306   -254677.83     254.3134     3413.652    16117.588 
  423500   -254729.14    49.010857   -254680.13    239.52274    3212.4737    16117.588 
  423600   -254728.81    49.151067   -254679.66    240.20796    3222.0372    16117.588 
  423700   -254730.84    52.203957   -254678.63    255.12785    3424.1649    16117.588 
  423800   -254729.43    50.560543   -254678.87    247.09626    3424.4689    16117.588 
  423900   -254728.02    50.736446   -254677.29    247.95592    3326.7865    16117.588 
  424000   -254726.64    51.102402   -254675.53     249.7444     3350.922    16117.588 
  424100   -254727.77    52.366338    -254675.4    255.92143    3435.3728    16117.588 
  424200   -254727.41    50.718577   -254676.69     247.8686    3325.8994    16117.588 
  424300   -254729.88    52.488845   -254677.39    256.52013    3443.2141    16117.588 
  424400   -254729.38    50.691785   -254678.69    247.73766    3324.0019    16117.588 
  424500   -254730.19    50.916961   -254679.27    248.83813    3338.3086    16117.588 
  424600   -254729.89    49.769445   -254680.12    243.23006    3262.3128    16117.588 
  424700   -254732.07    51.349883   -254680.72    250.95387    3367.3238    16117.588 
  424800   -254731.29    52.413218   -254678.88    256.15054    3437.7173    16117.588 
  424900   -254729.77    51.718183   -254678.05    252.75381    3391.9859    16117.588 
  425000   -254728.76    51.348884   -254677.41    250.94899    3367.9864    16117.588 
  425100   -254726.72    51.287743   -254675.43    250.65019    3363.7255    16117.588 
  425200   -254727.06    53.129109   -254673.93    259.64919    3485.8945    16117.588 
  425300   -254727.59    52.160887   -254675.43    254.91736    3450.2737    16117.588 
  425400    -254728.2    51.054007   -254677.15    249.50789    3347.5964    16117.588 
  425500   -254727.41    49.646969   -254677.77     242.6315    3254.6766    16117.588 
  425600   -254728.72    51.735117   -254676.98    252.83656    3393.3259    16117.588 
  425700      -254728    51.460649   -254676.54     251.4952  