LAMMPS (29 Sep 2021 - Update 2)
OMP_NUM_THREADS environment is not set. Defaulting to 1 thread. (src/comm.cpp:98)
  using 1 OpenMP thread(s) per MPI task
Reading data file ...
  orthogonal box = (0.0000000 0.0000000 0.0000000) to (25.260000 25.260000 25.260000)
  1 by 1 by 1 MPI processor grid
WARNING: Atom style in data file differs from currently defined atom style (src/read_data.cpp:516)
  reading atoms ...
  1584 atoms
  read_data CPU = 0.007 seconds
NequIP Coeff: type 1 is element O
NequIP Coeff: type 2 is element H
NequIP Coeff: type 3 is element Li
NequIP Coeff: type 4 is element Cl
Scanning dump file ...
Reading snapshot from dump file ...
  orthogonal box = (0.0000000 0.0000000 0.0000000) to (25.260000 25.260000 25.260000)
  1584 atoms before read
  1584 atoms in snapshot
  0 atoms purged
  1584 atoms replaced
  0 atoms trimmed
  0 atoms added
  1584 atoms after read
PPPM initialization ...
  using 12-bit tables for long-range coulomb (src/kspace.cpp:340)
  G vector (1/distance) = 0.22568151
  grid = 9 9 9
  stencil order = 5
  estimated absolute RMS force accuracy = 8.1621662e-06
  estimated relative force accuracy = 5.6683107e-07
  using double precision FFTW3
  3d grid and FFT values/proc = 2744 729
Neighbor list info ...
  update every 10 steps, delay 0 steps, check no
  max neighbors/atom: 2000, page size: 100000
  master list distance cutoff = 12
  ghost atom cutoff = 12
  binsize = 6, bins = 5 5 5
  3 neighbor lists, perpetual/occasional/extra = 3 0 0
  (1) pair nequip, perpetual
      attributes: full, newton off
      pair build: full/bin/atomonly
      stencil: full/bin/3d
      bin: standard
  (2) pair coul/long, perpetual, half/full from (1)
      attributes: half, newton off
      pair build: halffull/newtoff
      stencil: none
      bin: none
  (3) pair gauss/cut, perpetual, copy from (2)
      attributes: half, newton off
      pair build: copy
      stencil: none
      bin: none
Setting up Verlet run ...
  Unit style    : metal
  Current step  : 0
  Time step     : 0.0005
Per MPI rank memory allocation (min/avg/max) = 16.42 | 16.42 | 16.42 Mbytes
Step PotEng KinEng TotEng Temp Press Volume 
       0   -254646.91    86.962994   -254559.95          425    5743.5038    16117.588 
     100   -254655.63    91.153268   -254564.47    445.47844    5995.1776    16117.588 
     200   -254660.34    90.859369   -254569.48    444.04212    5977.1972    16117.588 
     300   -254659.59    85.594863   -254573.99    418.31376    5625.4149    16117.588 
     400    -254664.8    88.559904   -254576.24    432.80432    5826.0342    16117.588 
     500   -254664.38    86.235052   -254578.14    421.44245    5663.5478    16117.588 
     600   -254664.28    85.465037   -254578.81    417.67928    5617.3189    16117.588 
     700   -254661.65    85.247303    -254576.4    416.61519    5606.1665    16117.588 
     800   -254660.33    87.411176   -254572.91    427.19032     5747.736    16117.588 
     900   -254661.32    88.287513   -254573.03    431.47311    5806.9204    16117.588 
    1000   -254663.87    88.819443   -254575.05    434.07272     5890.846    16117.588 
    1100   -254662.74    84.724133   -254578.02    414.05838    5571.7566    16117.588 
    1200   -254664.34    86.856533   -254577.49    424.47971     5713.525    16117.588 
    1300   -254664.08    87.728386   -254576.36    428.74057    5807.8086    16117.588 
    1400   -254664.24    88.912351   -254575.33    434.52677    5849.7506    16117.588 
    1500   -254662.68    87.000697   -254575.67    425.18426    5721.8906    16117.588 
    1600    -254666.4    87.968656   -254578.43    429.91481    5883.5023    16117.588 
    1700   -254666.08    85.370443   -254580.71    417.21699    5677.3013    16117.588 
    1800   -254669.58    90.030624   -254579.55    439.99193    5923.8514    16117.588 
    1900   -254666.07    89.870436    -254576.2    439.20906    5937.6165    16117.588 
    2000   -254661.85    88.217768   -254573.63    431.13225    5804.0553    16117.588 
    2100   -254665.13    88.560994   -254576.57    432.80964    5826.0028    16117.588 
    2200   -254666.27    86.936319   -254579.33    424.86964    5717.8368    16117.588 
    2300   -254662.89    85.517012   -254577.37    417.93329    5670.6797    16117.588 
    2400   -254661.58    87.110813   -254574.47    425.72241    5766.1283    16117.588 
    2500   -254661.77    88.598258   -254573.18    432.99176    5828.8942    16117.588 
    2600   -254664.99    87.986832      -254577    430.00363    5860.7252    16117.588 
    2700   -254665.88    86.305681   -254579.58    421.78762    5774.7736    16117.588 
    2800   -254669.45    89.244515    -254580.2     436.1501    5904.5308    16117.588 
    2900    -254668.4    86.663585   -254581.73    423.53675    5703.8884    16117.588 
    3000   -254667.91    86.277465   -254581.63    421.64973    5705.3469    16117.588 
    3100   -254667.69    88.951863   -254578.74    434.71988    5893.5954    16117.588 
    3200   -254664.78    88.412785   -254576.37    432.08532    5869.7705    16117.588 
    3300   -254665.44    90.039441   -254575.41    440.03501    5928.0332    16117.588 
    3400   -254668.58    88.102267   -254580.48    430.56778      5846.19    16117.588 
    3500    -254669.2     86.44142   -254582.76      422.451    5687.5187    16117.588 
    3600   -254669.62    88.323737   -254581.29    431.65014    5973.3422    16117.588 
    3700   -254666.27    86.265675      -254580    421.59211    5781.1109    16117.588 
    3800   -254666.95     90.64165   -254576.31    442.97809     6035.606    16117.588 
    3900   -254666.94    92.620563   -254574.32    452.64931    6216.4383    16117.588 
    4000   -254664.34    86.573958   -254577.76    423.09873    5697.0677    16117.588 
    4100    -254665.7    87.252552   -254578.44    426.41511    5743.2123    16117.588 
    4200   -254664.55    86.043392    -254578.5    420.50578    5662.6793    16117.588 
    4300   -254666.88    88.900891   -254577.98    434.47077    5852.6638    16117.588 
    4400    -254664.9    87.504669   -254577.39    427.64724    5790.6988    16117.588 
    4500   -254663.05    86.242802    -254576.8    421.48032    5699.6752    16117.588 
    4600   -254664.52    87.701724   -254576.82    428.61027    5773.7281    16117.588 
    4700    -254665.9    86.596956   -254579.31    423.21112    5829.5887    16117.588 
    4800    -254666.8    85.355251   -254581.44    417.14274    5618.6003    16117.588 
    4900   -254665.91    86.470052   -254579.44    422.59092    5773.8345    16117.588 
    5000   -254664.59    89.006001   -254575.58    434.98445    5858.3253    16117.588 
    5100   -254665.45    89.290959   -254576.16    436.37708    5879.3866    16117.588 
    5200   -254666.08    87.796157   -254578.28    429.07178    5848.2679    16117.588 
    5300   -254665.27    86.734954   -254578.53    423.88554    5708.3015    16117.588 
    5400   -254666.08    87.897512   -254578.18    429.56712    5786.1155    16117.588 
    5500   -254666.77    91.031973   -254575.73    444.88566    6023.8231    16117.588 
    5600   -254665.96    92.528496   -254573.44    452.19937    6141.4335    16117.588 
    5700   -254665.25    87.236152   -254578.01    426.33496    5786.2018    16117.588 
    5800   -254666.54    85.692631   -254580.85    418.79156    5672.7954    16117.588 
    5900   -254669.38    88.184195   -254581.19    430.96818    5804.3781    16117.588 
    6000   -254666.53    85.475957   -254581.05    417.73265    5624.2955    16117.588 
    6100    -254666.7    88.815799   -254577.89    434.05491    5845.7405    16117.588 
    6200   -254662.41     87.15666   -254575.25    425.94647    5735.3276    16117.588 
    6300    -254664.1    87.223261   -254576.88    426.27196    5764.5158    16117.588 
    6400   -254665.75    84.607873   -254581.14     413.4902    5630.0291    16117.588 
    6500   -254666.99    85.815623   -254581.18    419.39264    5672.5672    16117.588 
    6600   -254668.09    87.964921   -254580.12    429.89656    5846.9022    16117.588 
    6700   -254666.09     87.40348   -254578.68    427.15271    5750.7367    16117.588 
    6800   -254666.65    90.098862   -254576.55    440.32541    5982.9017    16117.588 
    6900   -254666.42    91.201565   -254575.22    445.71447    6003.1094    16117.588 
    7000   -254667.11    89.853814   -254577.26    439.12783    5913.6418    16117.588 
    7100   -254668.73     87.14272   -254581.59    425.87834    5770.0219    16117.588 
    7200   -254668.64    86.188579   -254582.45    421.21533    5696.4988    16117.588 
    7300   -254670.72    89.176477   -254581.54    435.81759    5870.6744    16117.588 
    7400   -254667.97    89.490527   -254578.48     437.3524    5922.4552    16117.588 
    7500   -254666.32    90.765846   -254575.55    443.58506    5974.9949    16117.588 
    7600   -254666.51    87.665943   -254578.84    428.43541    5845.6169    16117.588 
    7700   -254666.73    84.454081   -254582.27     412.7386    5582.0577    16117.588 
    7800   -254666.45    85.622566   -254580.82    418.44915    5635.8404    16117.588 
    7900   -254665.72    88.261902   -254577.46    431.34794    5858.3067    16117.588 
    8000    -254664.7    88.625792   -254576.07    433.12632    5901.8734    16117.588 
    8100   -254664.29    87.032083   -254577.26    425.33765    5775.5863    16117.588 
    8200   -254665.52    83.977423   -254581.54    410.40911     5561.559    16117.588 
    8300   -254666.41    84.811286    -254581.6    414.48431     5580.186    16117.588 
    8400   -254667.98     89.95873   -254578.02    439.64057    5922.2845    16117.588 
    8500   -254664.72    88.267144   -254576.45    431.37356    5879.5519    16117.588 
    8600   -254665.37    87.575885   -254577.79    427.99528    5806.6597    16117.588 
    8700   -254664.68    84.765105   -254579.92    414.25862    5577.5041    16117.588 
    8800   -254664.88    86.451846   -254578.43    422.50195    5688.1245    16117.588 
    8900   -254667.23    91.118556   -254576.11     445.3088    6092.3001    16117.588 
    9000   -254667.08    90.321209   -254576.76    441.41206      5945.13    16117.588 
    9100    -254665.1    87.425856   -254577.67    427.26207    5750.9777    16117.588 
    9200   -254663.62    85.995812   -254577.62    420.27325    5657.1555    16117.588 
    9300   -254662.91    87.603125   -254575.31    428.12841    5792.2399    16117.588 
    9400   -254661.26    88.855072    -254572.4    434.24684    5847.2131    16117.588 
    9500   -254660.41    86.393765   -254574.01     422.2181    5682.1781    16117.588 
    9600   -254662.95    83.636004   -254579.31    408.74055    5500.5361    16117.588 
    9700   -254664.54     85.98552   -254578.56    420.22295    5656.6985    16117.588 
    9800   -254663.46    86.045251   -254577.42    420.51487    5660.8369    16117.588 
    9900   -254664.71    86.842067   -254577.86    424.40901    5813.9161    16117.588 
   10000   -254663.99      84.9592   -254579.03    415.20719     5590.744    16117.588 
   10100   -254668.46    87.454135   -254581.01    427.40027    5754.4484    16117.588 
   10200   -254665.44    82.261338   -254583.18    402.02236    5471.9809    16117.588 
   10300   -254666.82    85.973146   -254580.85    420.16248    5655.0427    16117.588 
   10400   -254664.22    86.742261   -254577.48    423.92125    5705.9808    16117.588 
   10500   -254665.48    87.684993   -254577.79    428.52851    5768.9715    16117.588 
   10600   -254664.55    85.866823   -254578.68    419.64287    5670.6703    16117.588 
   10700   -254664.72    86.508351   -254578.21     422.7781    5689.9005    16117.588 
   10800   -254661.16    83.636807   -254577.52    408.74447    5500.3339    16117.588 
   10900    -254662.4    86.218853   -254576.18    421.36328    5695.1381    16117.588 
   11000   -254662.83    85.969965   -254576.86    420.14693     5656.422    16117.588 
   11100   -254662.67    84.797531   -254577.88    414.41709    5681.0274    16117.588 
   11200   -254663.26    85.390044   -254577.87    417.31278    5687.4219    16117.588 
   11300   -254667.41     91.68253   -254575.72    448.06502    6033.2334    16117.588 
   11400   -254664.68    88.985841    -254575.7    434.88593    5881.7527    16117.588 
   11500   -254664.79    85.056872   -254579.73    415.68452    5631.3417    16117.588 
   11600   -254667.98    86.757787   -254581.22    423.99712    5709.6014    16117.588 
   11700   -254666.69    85.907958   -254580.78     419.8439    5653.9129    16117.588 
   11800    -254666.9    86.939303   -254579.96    424.88422    5722.6191    16117.588 
   11900   -254665.45    89.766395   -254575.68     438.7006    5910.1264    16117.588 
   12000    -254661.2     89.50021    -254571.7    437.39972    5890.2537    16117.588 
   12100   -254664.11    90.970436   -254573.14    444.58491    5988.9559    16117.588 
   12200   -254665.08    87.640787   -254577.44    428.31247    5763.6749    16117.588 
   12300   -254666.36    87.356526      -254579    426.92324    5826.2337    16117.588 
   12400   -254668.05     87.80385   -254580.24    429.10938    5779.8454    16117.588 
   12500   -254666.07    84.289745   -254581.78    411.93547    5545.1396    16117.588 
   12600   -254668.34    87.894393   -254580.45    429.55187    5810.5875    16117.588 
   12700   -254663.97    87.192264   -254576.78    426.12047    5776.3666    16117.588 
   12800   -254664.26     89.07864   -254575.18    435.33945    5862.5003    16117.588 
   12900    -254663.9    86.868966   -254577.03    424.54047    5844.7949    16117.588 
   13000    -254665.2     84.62375   -254580.57     413.5678    5567.0993    16117.588 
   13100   -254667.78    84.284509    -254583.5    411.90988    5620.4731    16117.588 
   13200   -254669.67    84.072573    -254585.6    410.87412    5613.7557    16117.588 
   13300   -254667.06    84.175093   -254582.89    411.37515    5577.7006    16117.588 
   13400   -254665.63    86.537931   -254579.09    422.92266    5891.3434    16117.588 
   13500   -254664.92     87.11436    -254577.8    425.73975    5732.6396    16117.588 
   13600   -254666.21    88.777127   -254577.44    433.86592     5844.043    16117.588 
   13700   -254667.09    88.298363   -254578.79    431.52613    5858.6745    16117.588 
   13800   -254666.22    84.509868   -254581.71    413.01124    5559.3437    16117.588 
   13900   -254666.46    84.691661   -254581.76    413.89969    5649.7485    16117.588 
   14000   -254664.06    86.386008   -254577.67    422.18019    5827.0034    16117.588 
   14100   -254661.36    85.231487   -254576.13    416.53789    5646.5167    16117.588 
   14200   -254661.94    87.504469   -254574.44    427.64626     5760.157    16117.588 
   14300   -254663.04    86.580752   -254576.46    423.13193    5864.6116    16117.588 
   14400    -254664.3    84.078823   -254580.22    410.90466    5531.5335    16117.588 
   14500   -254667.66    86.290203   -254581.37    421.71198    5807.5293    16117.588 
   14600   -254666.89    85.907147   -254580.99    419.83993    5654.0128    16117.588 
   14700   -254664.47    84.181792   -254580.29    411.40789    5562.2863    16117.588 
   14800   -254667.19    87.958682   -254579.23    429.86606    5789.2705    16117.588 
   14900   -254665.83    89.620345   -254576.21    437.98684    5930.2923    16117.588 
   15000    -254663.7    87.557245   -254576.14    427.90419    5761.2535    16117.588 
   15100   -254665.62     84.52489    -254581.1    413.08465    5603.8934    16117.588 
   15200    -254666.9    85.190875   -254581.71    416.33941     5602.224    16117.588 
   15300   -254666.25     86.64982    -254579.6    423.46948    5738.2648    16117.588 
   15400   -254667.28    90.608409   -254576.67    442.81564     5962.927    16117.588 
   15500   -254665.46    88.230146   -254577.23    431.19275     5803.196    16117.588 
   15600   -254665.34    86.562412   -254578.77     423.0423    5695.1144    16117.588 
   15700   -254664.42    84.138649   -254580.29    411.19704    5719.2009    16117.588 
   15800   -254667.98    88.737043   -254579.24    433.67002    5837.6819    16117.588 
   15900    -254666.5    84.965816   -254581.53    415.23952    5661.8623    16117.588 
   16000   -254668.99    83.232527   -254585.76     406.7687    5475.0649    16117.588 
   16100   -254669.79    85.077666   -254584.71    415.78615     5722.751    16117.588 
   16200   -254667.44    86.636301   -254580.81    423.40341     5701.362    16117.588 
   16300   -254668.54    88.986739   -254579.55    434.89032    5884.2281    16117.588 
   16400   -254668.39    89.654812   -254578.73    438.15528    5971.7344    16117.588 
   16500   -254667.51    86.902713   -254580.61     424.7054    5787.2328    16117.588 
   16600    -254669.8    85.931583   -254583.87    419.95935    5681.2871    16117.588 
   16700   -254667.84    85.239666    -254582.6    416.57786       5608.9    16117.588 
   16800   -254666.78    88.388345   -254578.39    431.96588    5852.3204    16117.588 
   16900   -254664.74     87.72162   -254577.02    428.70751    5796.8062    16117.588 
   17000   -254665.57    88.051222   -254577.51    430.31832    5857.0461    16117.588 
   17100   -254666.56    86.838587   -254579.73    424.39201    5714.2701    16117.588 
   17200   -254667.08    86.075619      -254581    420.66328    5700.2257    16117.588 
   17300   -254666.97    86.826088   -254580.14    424.33092    5739.7737    16117.588 
   17400   -254664.86    89.037598   -254575.83    435.13887    5860.6186    16117.588 
   17500   -254661.07    85.590026   -254575.48    418.29012    5629.8997    16117.588 
   17600   -254663.96    86.447729   -254577.51    422.48183    5688.5467    16117.588 
   17700   -254664.25    82.983053   -254581.26    405.54949    5456.8124    16117.588 
   17800   -254665.91    85.684525   -254580.22    418.75195    5637.5986    16117.588 
   17900   -254663.91     88.57558   -254575.33    432.88093    5849.8431    16117.588 
   18000   -254662.34    86.886901   -254575.46    424.62812    5759.1943    16117.588 
   18100    -254664.7    88.296547    -254576.4    431.51725    5810.4188    16117.588 
   18200   -254667.04    88.995765   -254578.05    434.93443    5857.9296    16117.588 
   18300   -254668.03    87.099941   -254580.93    425.66928    5730.4927    16117.588 
   18400   -254665.06    83.258417    -254581.8    406.89523    5473.3934    16117.588 
   18500   -254666.25    87.709328   -254578.54    428.64744    5872.0033    16117.588 
   18600   -254665.54    89.852997   -254575.68    439.12384    5911.3074    16117.588 
   18700   -254665.17    86.710314   -254578.46    423.76512    5847.6427    16117.588 
   18800   -254666.19    85.655908   -254580.53    418.61209    5633.4692    16117.588 
   18900   -254669.13    88.297895   -254580.83    431.52384    5809.2287    16117.588 
   19000   -254667.39    86.509803   -254580.88    422.78519    5716.7767    16117.588 
   19100   -254665.23    86.513119   -254578.72     422.8014    5836.3044    16117.588 
   19200   -254664.74    90.407231   -254574.33    441.83246    5948.5827    16117.588 
   19300   -254661.87    86.133503   -254575.74    420.94616    5716.8627    16117.588 
   19400   -254663.92    85.831224   -254578.09    419.46888    5645.2404    16117.588 
   19500    -254665.1    85.514782   -254579.58    417.92239    5623.6996    16117.588 
   19600   -254666.86    90.584951   -254576.28      442.701     5959.599    16117.588 
   19700   -254664.55    91.143886   -254573.41    445.43259    6096.7757    16117.588 
   19800   -254667.68    90.771245   -254576.91    443.61144    5997.3409    16117.588 
   19900   -254664.93    85.525727   -254579.41    417.97588    5747.9775    16117.588 
   20000   -254664.51    85.026351   -254579.48    415.53536     5584.729    16117.588 
   20100   -254667.37      89.8101   -254577.56    438.91419    5904.8251    16117.588 
   20200   -254663.47    86.083932   -254577.39     420.7039     5656.081    16117.588 
   20300   -254665.57    87.879531   -254577.69    429.47924    5827.9402    16117.588 
   20400   -254664.96    83.504593   -254581.45    408.09832    5515.5183    16117.588 
   20500   -254666.33    83.531403   -254582.79    408.22935     5491.133    16117.588 
   20600    -254666.5    86.629056   -254579.87      423.368    5732.1992    16117.588 
   20700    -254665.7    88.133938   -254577.57    430.72256    5794.0425    16117.588 
   20800   -254664.37    85.961114   -254578.41    420.10368    5680.1412    16117.588 
   20900   -254663.85    86.516715   -254577.33    422.81897    5722.7913    16117.588 
   21000   -254664.24    87.060371   -254577.18     425.4759    5725.6678    16117.588 
   21100   -254665.87    84.607875   -254581.26    413.49021    5656.5318    16117.588 
   21200   -254668.26    85.692052   -254582.57    418.78873    5715.4184    16117.588 
   21300   -254668.19    87.395356   -254580.79    427.11301    5748.6127    16117.588 
   21400   -254666.35    89.953871    -254576.4    439.61683    5975.4036    16117.588 
   21500   -254663.65    87.997148   -254575.65    430.05405    5783.5088    16117.588 
   21600   -254664.43    87.215916   -254577.21    426.23606    5809.6356    16117.588 
   21700   -254666.84    87.744107   -254579.09    428.81741    5861.2085    16117.588 
   21800   -254666.05    87.039066   -254579.01    425.37177    5754.1969    16117.588 
   21900   -254666.37    88.704542   -254577.66    433.51118    5895.8331    16117.588 
   22000   -254664.66    89.369455   -254575.29     436.7607    5971.3431    16117.588 
   22100   -254662.16    88.008205   -254574.15    430.10809    5785.3369    16117.588 
   22200    -254664.6    87.932184   -254576.66    429.73656    5887.6328    16117.588 
   22300   -254662.21    82.741916   -254579.46    404.37102    5437.2941    16117.588 
   22400   -254662.46     85.19094   -254577.27    416.33973    5600.5019    16117.588 
   22500   -254661.37    86.817907   -254574.55    424.29094    5741.2079    16117.588 
   22600   -254663.07    87.415257   -254575.65    427.21027     5746.697    16117.588 
   22700    -254661.9    84.862003   -254577.03    414.73217    5578.2882    16117.588 
   22800   -254662.69    85.757677   -254576.94    419.10945    5638.1277    16117.588 
   22900   -254660.81    86.922923   -254573.89    424.80417    5713.6625    16117.588 
   23000   -254661.44    90.453916   -254570.98    442.06061    5995.5045    16117.588 
   23100   -254660.56    87.221891   -254573.34    426.26526    5733.2192    16117.588 
   23200   -254664.82    87.981855   -254576.84    429.97931    5808.4916    16117.588 
   23300   -254665.43    87.432503      -254578    427.29456    5748.0766    16117.588 
   23400   -254665.78     87.19156   -254578.59    426.11703    5732.5711    16117.588 
   23500   -254663.51    84.096377   -254579.42    410.99045    5525.4965    16117.588 
   23600   -254663.02    86.112945   -254576.91    420.84569    5661.5013    16117.588 
   23700   -254660.97    87.184905   -254573.78    426.08451    5731.7376    16117.588 
   23800   -254663.73    88.449829   -254575.28    432.26637    5814.3138    16117.588 
   23900   -254666.34    88.389163   -254577.95    431.96988    5812.4941    16117.588 
   24000   -254666.21    87.440581   -254578.77    427.33403     5772.591    16117.588 
   24100   -254666.92    86.687887   -254580.23    423.65551    5701.7835    16117.588 
   24200   -254667.53    86.092483   -254581.44    420.74569    5661.5718    16117.588 
   24300   -254667.14    86.243392   -254580.89    421.48321     5672.686    16117.588 
   24400   -254664.55    89.391587   -254575.16    436.86887     5978.099    16117.588 
   24500   -254664.71    89.585753   -254575.12    437.81778    5892.4444    16117.588 
   24600   -254666.88    87.989912   -254578.89    430.01869    5844.0933    16117.588 
   24700    -254668.4    87.118312   -254581.28    425.75906    5763.6787    16117.588 
   24800   -254670.48    88.477137      -254582    432.39982    5819.2197    16117.588 
   24900   -254667.18     86.91913   -254580.26    424.78563    5715.4956    16117.588 
   25000   -254667.34    91.275459   -254576.06     446.0756    6002.0877    16117.588 
   25100   -254664.33    87.934595    -254576.4    429.74835    5783.4423    16117.588 
   25200    -254665.1    87.478689   -254577.62    427.52027    5751.6588    16117.588 
   25300   -254666.91    88.320747   -254578.59    431.63552    5841.2702    16117.588 
   25400    -254664.4     85.49222   -254578.91    417.81213    5620.2952    16117.588 
   25500      -254666    89.602432    -254576.4    437.89929    5894.8453    16117.588 
   25600   -254665.35     91.00519   -254574.35    444.75476    5988.5468    16117.588 
   25700   -254663.35    88.151765    -254575.2    430.80968    5866.5196    16117.588 
   25800   -254665.36    86.646274   -254578.72    423.45215    5768.2558    16117.588 
   25900    -254666.5    85.716638   -254580.78    418.90889    5637.9143    16117.588 
   26000   -254667.14    86.430707   -254580.71    422.39864    5684.0732    16117.588 
   26100   -254662.36    87.170381   -254575.19    426.01353    5772.2498    16117.588 
   26200   -254664.87    90.554537   -254574.32    442.55236    5958.0697    16117.588 
   26300   -254663.77    86.592514   -254577.17    423.18941    5745.0623    16117.588 
   26400   -254665.87    86.537548   -254579.33    422.92079    5692.7151    16117.588 
   26500   -254665.61    88.719689   -254576.89    433.58521    5837.4057    16117.588 
   26600   -254663.14    88.935955    -254574.2    434.64213    5961.2468    16117.588 
   26700   -254660.88    85.798619   -254575.08    419.30954    5642.9462    16117.588 
   26800   -254664.68    84.529461   -254580.15    413.10699    5606.2094    16117.588 
   26900    -254665.3    84.968472   -254580.33     415.2525    5590.0382    16117.588 
   27000   -254666.09    89.010514   -254577.08    435.00651    5859.7685    16117.588 
   27100   -254666.26     90.12147   -254576.14     440.4359    5931.6745    16117.588 
   27200   -254665.91    87.299122   -254578.61     426.6427     5745.831    16117.588 
   27300   -254662.56    83.234299   -254579.33    406.77736    5569.7812    16117.588 
   27400   -254666.56     88.48123   -254578.08    432.41982    5824.7522    16117.588 
   27500   -254663.84    86.530161   -254577.31    422.88469    5694.3661    16117.588 
   27600   -254662.04    86.896364   -254575.15    424.67437    5750.9937    16117.588 
   27700   -254659.86    89.189166   -254570.67     435.8796     5869.085    16117.588 
   27800    -254660.1    88.101097      -254572    430.56207     5797.144    16117.588 
   27900   -254663.21    88.349015   -254574.86    431.77368    5902.2174    16117.588 
   28000   -254661.99    85.700049   -254576.29    418.82782    5701.9215    16117.588 
   28100   -254663.11    85.377093   -254577.73    417.24948    5616.9781    16117.588 
   28200   -254666.03     87.07587   -254578.96    425.55164    5727.5471    16117.588 
   28300   -254666.51    87.010618    -254579.5    425.23275    5770.5052    16117.588 
   28400   -254664.91    85.420394   -254579.49     417.4611    5676.5015    16117.588 
   28500   -254664.39    87.646271   -254576.74    428.33927    5804.8763    16117.588 
   28600   -254666.09    90.514896   -254575.58    442.35863    6033.6387    16117.588 
   28700   -254665.19    87.964286   -254577.23    429.89345    5788.6751    16117.588 
   28800   -254665.61    83.977599   -254581.63    410.40997    5612.1782    16117.588 
   28900   -254667.22    85.152624   -254582.07    416.15248    5630.5279    16117.588 
   29000   -254665.75    84.793076   -254580.96    414.39531    5581.5373    16117.588 
   29100   -254664.44    85.394696   -254579.04    417.33551    5620.0269    16117.588 
   29200   -254664.38    87.359194   -254577.02    426.93628    5748.8629    16117.588 
   29300    -254662.4    86.440163   -254575.96    422.44485    5852.0961    16117.588 
   29400   -254666.62    89.788234   -254576.83    438.80733    5910.3073    16117.588 
   29500   -254666.93    85.821713   -254581.11     419.4224    5644.6869    16117.588 
   29600   -254667.51    85.699149   -254581.81    418.82341    5670.6008    16117.588 
   29700   -254667.47    87.268146    -254580.2    426.49132    5743.6339    16117.588 
   29800   -254663.67    85.739226   -254577.94    419.01928    5665.1431    16117.588 
   29900   -254666.38    91.036582   -254575.35    444.90818    6046.4584    16117.588 
   30000   -254665.82     88.82217      -254577    434.08605    5846.3749    16117.588 
   30100   -254666.11    87.224448   -254578.88    426.27776    5740.7003    16117.588 
   30200   -254666.07    85.769358    -254580.3    419.16654     5640.129    16117.588 
   30300   -254666.28    86.121243   -254580.16    420.88625    5665.1615    16117.588 
   30400   -254661.47     83.79482   -254577.67     409.5167    5567.4016    16117.588 
   30500   -254661.25      87.9789   -254573.27    429.96487    5818.0173    16117.588 
   30600   -254660.69     87.03825   -254573.65    425.36779    5726.8794    16117.588 
   30700   -254663.86    88.554275   -254575.31    432.77681    5826.6446    16117.588 
   30800   -254665.26    88.127861   -254577.13    430.69286    5798.8131    16117.588 
   30900   -254664.68    84.973497   -254579.71    415.27706    5590.3141    16117.588 
   31000   -254666.21    85.253292   -254580.96    416.64445    5608.8134    16117.588 
   31100   -254666.92    88.352165   -254578.57    431.78907    5814.4846    16117.588 
   31200   -254665.17     91.24859   -254573.92    445.94429    6005.2215    16117.588 
   31300   -254661.39    86.375506   -254575.02    422.12887    5683.4471    16117.588 
   31400    -254665.2    88.389418   -254576.81    431.97113    5970.0415    16117.588 
   31500   -254665.49    84.872814   -254580.62    414.78501    5726.4509    16117.588 
   31600   -254665.46    86.323276   -254579.14    421.87361    5679.5155    16117.588 
   31700   -254665.42    88.214754   -254577.21    431.11752    5806.1587    16117.588 
   31800   -254660.04    83.530493   -254576.51     408.2249    5538.5106    16117.588 
   31900   -254662.22    88.400679   -254573.82    432.02616    5818.3332    16117.588 
   32000   -254660.13    89.788961   -254570.34    438.81088    6056.4524    16117.588 
   32100   -254658.78    89.312432   -254569.46    436.48202     5905.015    16117.588 
   32200    -254660.4    85.972714   -254574.43    420.16036    5688.2447    16117.588 
   32300   -254664.19    87.498332    -254576.7    427.61627     5753.751    16117.588 
   32400   -254663.91    86.333862   -254577.57    421.92535    5747.1167    16117.588 
   32500   -254666.19    88.216284   -254577.97      431.125    5806.5091    16117.588 
   32600   -254664.31    84.566514   -254579.74    413.28808     5599.277    16117.588 
   32700   -254665.18    85.096492   -254580.08    415.87815     5622.575    16117.588 
   32800    -254664.6    87.578342   -254577.02    428.00729    5764.9975    16117.588 
   32900   -254662.75    88.420134   -254574.33    432.12124    5821.4536    16117.588 
   33000   -254660.32    85.648089   -254574.67    418.57388    5637.2868    16117.588 
   33100   -254662.32     83.88848   -254578.43    409.97443     5545.783    16117.588 
   33200   -254664.76    83.735109   -254581.03    409.22489    5512.2988    16117.588 
   33300   -254664.36     84.45654    -254579.9    412.75062    5560.7508    16117.588 
   33400   -254664.37    86.264656    -254578.1    421.58713    5679.4206    16117.588 
   33500   -254666.84    89.126046   -254577.71    435.57113    5868.9215    16117.588 
   33600   -254666.72    88.590925   -254578.13    432.95592    5832.7907    16117.588 
   33700    -254665.9    86.461393   -254579.44    422.54861    5826.5005    16117.588 
   33800   -254669.16    88.230601   -254580.93    431.19497    5889.3916    16117.588 
   33900   -254665.98    84.031548   -254581.95    410.67363    5530.6668    16117.588 
   34000   -254666.45     85.51301   -254580.93    417.91373    5629.9429    16117.588 
   34100   -254666.36    86.661928    -254579.7    423.52865    5859.4607    16117.588 
   34200   -254663.93    86.390063   -254577.54    422.20001    5779.9414    16117.588 
   34300   -254662.06    88.016933   -254574.05    430.15074    5795.5003    16117.588 
   34400   -254662.55    87.926699   -254574.62    429.70976    5853.3415    16117.588 
   34500   -254664.87    87.740512   -254577.13    428.79983    5777.2529    16117.588 
   34600   -254666.15    87.407519   -254578.74    427.17245    5810.0673    16117.588 
   34700   -254667.74    87.634788   -254580.11    428.28315    5817.8255    16117.588 
   34800   -254665.53    86.365781   -254579.16    422.08134      5686.24    16117.588 
   34900   -254662.54    89.187225   -254573.35    435.87012    5872.6402    16117.588 
   35000   -254661.68    88.286438   -254573.39    431.46785    5815.3578    16117.588 
   35100   -254664.53    88.843183   -254575.69    434.18874    5886.2008    16117.588 
   35200   -254666.58    88.017076   -254578.57    430.15144    5797.4804    16117.588 
   35300   -254666.62    86.953401   -254579.66    424.95312    5725.8029    16117.588 
   35400   -254666.97    88.048322   -254578.92    430.30414    5799.4784    16117.588 
   35500   -254664.93    85.899179   -254579.03    419.80099    5672.7574    16117.588 
   35600   -254662.15    82.808199   -254579.34    404.69495    5451.7963    16117.588 
   35700   -254666.33    86.988821   -254579.34    425.12622    5822.0665    16117.588 
   35800   -254667.04    87.495571   -254579.54    427.60278    5764.1263    16117.588 
   35900   -254668.87    87.660688   -254581.21    428.40973    5773.6637    16117.588 
   36000   -254668.28    84.556657   -254583.72     413.2399    5567.6526    16117.588 
   36100   -254668.79      86.1813   -254582.61    421.17976    5676.1839    16117.588 
   36200   -254666.05    88.333714   -254577.71     431.6989    5848.9822    16117.588 
   36300   -254663.17     86.68902   -254576.48    423.66105    5857.1123    16117.588 
   36400   -254665.36    86.703427   -254578.66    423.73146     5739.168    16117.588 
   36500   -254667.62    85.952829   -254581.66    420.06319    5685.8608    16117.588 
   36600   -254666.03    84.531477    -254581.5    413.11685    5592.5284    16117.588 
   36700   -254667.11    89.458888   -254577.65    437.19778    5893.5668    16117.588 
   36800    -254664.1    87.082503   -254577.01    425.58406    5735.6883    16117.588 
   36900   -254667.23    90.715255   -254576.52    443.33781    6002.8705    16117.588 
   37000    -254666.2    89.271566   -254576.92    436.28231    5881.2334    16117.588 
   37100   -254666.28    86.066708   -254580.21    420.61973     5668.168    16117.588 
   37200    -254668.1    86.154618   -254581.94    421.04936    5673.4327    16117.588 
   37300   -254666.94    86.833836   -254580.11    424.36878     5717.277    16117.588 
   37400   -254665.14    90.257215   -254574.88    441.09931    5984.0725    16117.588 
   37500   -254665.25    88.900064   -254576.35    434.46672    5853.7125    16117.588 
   37600   -254667.24    86.916204   -254580.33    424.77133    5722.5743    16117.588 
   37700   -254667.34    85.352702   -254581.99    417.13028     5664.354    16117.588 
   37800   -254666.45     86.11974   -254580.33     420.8789    5670.1018    16117.588 
   37900   -254663.77    87.034495   -254576.73    425.34944    5729.7548    16117.588 
   38000   -254663.89    87.562034   -254576.33    427.92759    5812.8521    16117.588 
   38100   -254667.23     89.20899   -254578.02    435.97649    5956.5195    16117.588 
   38200    -254664.4    84.821613   -254579.58    414.53478    5581.9058    16117.588 
   38300   -254663.98    84.696646   -254579.28    413.92405    5574.2961    16117.588 
   38400    -254666.8    87.346599   -254579.45    426.87473    5751.5144    16117.588 
   38500   -254668.95    88.106532   -254580.84    430.58863    5801.4087    16117.588 
   38600   -254668.09    83.229443   -254584.86    406.75363    5476.5803    16117.588 
   38700   -254669.58    84.821471   -254584.76    414.53409    5580.3435    16117.588 
   38800   -254667.68    86.304132   -254581.37    421.78005    5681.8746    16117.588 
   38900   -254665.92     88.03082   -254577.89    430.21861     5819.878    16117.588 
   39000   -254664.55    87.192358   -254577.35    426.12093    5852.8683    16117.588 
   39100   -254665.03    84.734827   -254580.29    414.11065    5576.8629    16117.588 
   39200   -254668.61    86.475142   -254582.13     422.6158    5732.9735    16117.588 
   39300   -254665.13    84.491987   -254580.64    412.92385    5560.6017    16117.588 
   39400   -254665.97    89.757277   -254576.21    438.65604    5911.2751    16117.588 
   39500    -254665.8    87.639982   -254578.16    428.30853    5807.9555    16117.588 
   39600   -254665.58     84.99007   -254580.59    415.35805    5590.1926    16117.588 
   39700   -254669.99    89.985697   -254580.01    439.77236    5925.0779    16117.588 
   39800    -254669.2    89.395826    -254579.8    436.88958    5919.4378    16117.588 
   39900   -254663.91    87.241009   -254576.67     426.3587     5773.637    16117.588 
   40000   -254662.21    87.455176   -254574.75    427.40536    5790.5321    16117.588 
   40100      -254662     87.75882   -254574.25    428.88931    5836.0847    16117.588 
   40200   -254662.85    86.403518   -254576.45    422.26576    5688.8209    16117.588 
   40300   -254664.43    84.320226   -254580.11    412.08443    5540.5875    16117.588 
   40400   -254663.57    84.366485    -254579.2     412.3105    5575.5325    16117.588 
   40500    -254664.4    88.009466   -254576.39    430.11425    5818.4017    16117.588 
   40600   -254664.76     88.42943   -254576.33    432.16667    5819.6969    16117.588 
   40700   -254667.45    89.169954   -254578.28    435.78571    5869.1812    16117.588 
   40800   -254668.03    86.928891    -254581.1    424.83333    5884.0012    16117.588 
   40900   -254667.35     86.23206   -254581.12    421.42783    5711.4046    16117.588 
   41000   -254665.57     85.92689   -254579.64    419.93642    5678.1598    16117.588 
   41100    -254663.7    85.536813   -254578.16    418.03006    5628.7768    16117.588 
   41200   -254663.71    87.707078      -254576    428.63644    5795.1374    16117.588 
   41300   -254664.32    88.550102   -254575.77    432.75641    5827.4183    16117.588 
   41400    -254665.1    88.447144   -254576.65    432.25325    5820.0432    16117.588 
   41500   -254664.09    86.465749   -254577.62     422.5699    5754.0015    16117.588 
   41600   -254666.55    88.608671   -254577.94    433.04265    5831.0568    16117.588 
   41700   -254665.26    87.129919   -254578.13    425.81578    5779.1408    16117.588 
   41800   -254666.42    86.070373   -254580.35    420.63764     5663.452    16117.588 
   41900   -254664.98    83.201463   -254581.78    406.61689    5496.5448    16117.588 
   42000   -254665.22    87.294611   -254577.92    426.62066    5744.0689    16117.588 
   42100   -254664.47    88.135587   -254576.33    430.73062    5799.8635    16117.588 
   42200   -254666.39    88.810162   -254577.58    434.02736    5884.9047    16117.588 
   42300   -254666.87    84.440839   -254582.43    412.67388    5656.8946    16117.588 
   42400   -254665.72    82.875784   -254582.85    405.02525    5482.4903    16117.588 
   42500   -254670.13    89.097457   -254581.03    435.43141    6061.5842    16117.588 
   42600   -254665.76     86.90283   -254578.86    424.70597    5741.6581    16117.588 
   42700   -254667.93    90.222014   -254577.71    440.92728    5936.6712    16117.588 
   42800   -254666.43    88.280233   -254578.15    431.43752    5808.7777    16117.588 
   42900   -254669.36    86.150707   -254583.21    421.03024    5694.9026    16117.588 
   43000   -254668.76    83.852652   -254584.91    409.79933    5568.0547    16117.588 
   43100   -254667.72    85.729136   -254581.99    418.96997    5686.2106    16117.588 
   43200   -254667.59    88.145162   -254579.44    430.77742     5891.896    16117.588 
   43300   -254666.62    88.055123   -254578.57    430.33738    5796.2986    16117.588 
   43400   -254666.22     87.52311    -254578.7    427.73736    5759.7879    16117.588 
   43500   -254667.57    86.948997   -254580.62     424.9316    5792.0288    16117.588 
   43600   -254667.15    84.414043   -254582.74    412.54293    5552.8654    16117.588 
   43700   -254666.07    85.138382   -254580.94    416.08287    5602.8211    16117.588 
   43800   -254663.08    85.781904    -254577.3    419.22785    5645.6476    16117.588 
   43900   -254664.51    87.956701   -254576.55    429.85638    5787.5279    16117.588 
   44000   -254667.02    89.081222   -254577.94    435.35207    5862.7107    16117.588 
   44100   -254666.21     84.44412   -254581.77    412.68992    5591.3183    16117.588 
   44200    -254669.2    87.014082   -254582.18    425.24967    5842.5513    16117.588 
   44300   -254668.35    87.084413   -254581.27    425.59339    5731.8223    16117.588 
   44400   -254667.61    86.347667   -254581.26    421.99282    5684.0867    16117.588 
   44500   -254667.76    87.566399   -254580.19    427.94892    5873.7133    16117.588 
   44600   -254665.71    89.216307    -254576.5    436.01225    5942.9115    16117.588 
   44700   -254664.27    88.578823   -254575.69    432.89678      5830.73    16117.588 
   44800   -254662.21    83.465113   -254578.74    407.90538     5491.293    16117.588 
   44900    -254665.4    84.946999   -254580.46    415.14756    5589.8785    16117.588 
   45000   -254663.22    86.910698   -254576.31    424.74442    5822.4564    16117.588 
   45100   -254662.14    88.550536   -254573.59    432.75853    5856.0304    16117.588 
   45200   -254663.31    87.159805   -254576.15    425.96184    5736.8544    16117.588 
   45300   -254666.59     87.48075   -254579.11    427.53034     5759.214    16117.588 
   45400   -254666.75    86.712818   -254580.04    423.77736    5704.8571    16117.588 
   45500   -254665.99    85.563537   -254580.42    418.16066    5631.4839    16117.588 
   45600   -254669.29    85.804688   -254583.48     419.3392    5641.2956    16117.588 
   45700   -254667.95    83.868584   -254584.09     409.8772    5517.6048    16117.588 
   45800    -254664.1    83.923957   -254580.18    410.14781    5559.2252    16117.588 
   45900   -254662.86    85.372397   -254577.49    417.22653    5618.0967    16117.588 
   46000   -254665.88    89.191132   -254576.69    435.88922    5870.1935    16117.588 
   46100   -254665.49    86.825906   -254578.67    424.33003    5858.6388    16117.588 
   46200   -254666.04    84.148889   -254581.89    411.24709    5535.7376    16117.588 
   46300   -254669.08    85.782263    -254583.3    419.22961    5645.5805    16117.588 
   46400   -254670.17    86.352148   -254583.82    422.01471    5743.4408    16117.588 
   46500   -254668.98     88.21517   -254580.77    431.11955    5806.8951    16117.588 
   46600   -254669.43    90.262364   -254579.17    441.12447    5943.2249    16117.588 
   46700   -254671.36     89.28776   -254582.07    436.36145    5921.9147    16117.588 
   46800   -254669.84    84.783587   -254585.06    414.34894    5609.9622    16117.588 
   46900   -254668.76    85.058124    -254583.7    415.69064    5635.4006    16117.588 
   47000   -254667.61    85.766771   -254581.85    419.15389     5679.801    16117.588 
   47100   -254664.91    83.675745   -254581.24    408.93477     5710.356    16117.588 
   47200   -254664.88    86.794595   -254578.09    424.17701    5709.7475    16117.588 
   47300   -254666.44      89.2795   -254577.16    436.32108    5876.2615    16117.588 
   47400   -254666.13    86.361004   -254579.77    422.05799    5718.7934    16117.588 
   47500   -254668.85    85.319901   -254583.53    416.96998    5686.9866    16117.588 
   47600   -254666.91    83.901851   -254583.01    410.03978    5520.7364    16117.588 
   47700    -254667.5     86.19527   -254581.31    421.24803    5708.9602    16117.588 
   47800   -254666.84    87.565836   -254579.28    427.94617    5763.0296    16117.588 
   47900   -254666.32    87.992746   -254578.33    430.03254    5792.7186    16117.588 
   48000   -254665.89    86.219475   -254579.67    421.36632    5803.3164    16117.588 
   48100   -254667.62     84.47808   -254583.14    412.85589    5559.9511    16117.588 
   48200    -254667.3    83.632092   -254583.67    408.72143    5502.9942    16117.588 
   48300   -254667.35    88.171932   -254579.18    430.90825    5803.5122    16117.588 
   48400   -254663.36    86.120696   -254577.23    420.88358    5667.6433    16117.588 
   48500    -254667.4    89.590832   -254577.81     437.8426    5897.7664    16117.588 
   48600   -254667.86    87.272086   -254580.58    426.51057    5738.0946    16117.588 
   48700   -254665.72     83.82572   -254581.89    409.66771    5514.8674    16117.588 
   48800   -254666.28    87.596483   -254578.68    428.09595    5790.3914    16117.588 
   48900   -254664.23    89.302199   -254574.93    436.43201    5907.6399    16117.588 
   49000   -254665.64    89.720062   -254575.92    438.47417    5957.8116    16117.588 
   49100   -254666.11    86.863596   -254579.25    424.51423    5760.2828    16117.588 
   49200   -254667.02    85.593639   -254581.43    418.30778    5630.8538    16117.588 
   49300   -254665.68    85.050842   -254580.63    415.65505    5595.7806    16117.588 
   49400    -254666.2    87.682845   -254578.52    428.51801    5884.6907    16117.588 
   49500   -254665.11     87.33664   -254577.77    426.82606    5747.2457    16117.588 
   49600   -254665.05    86.411633   -254578.64    422.30542    5709.3248    16117.588 
   49700   -254668.77     87.12572   -254581.64    425.79526    5733.8451    16117.588 
   49800   -254668.26    85.905381   -254582.36     419.8313    5652.2851    16117.588 
   49900   -254664.15    84.566415   -254579.58    413.28759    5562.5765    16117.588 
   50000   -254661.53    86.731362    -254574.8    423.86798    5708.6182    16117.588 
   50100   -254665.06    87.969793   -254577.09    429.92036    5792.1058    16117.588 
   50200   -254664.72    84.420671    -254580.3    412.57532    5554.6448    16117.588 
   50300    -254666.5    86.181285   -254580.32    421.17968    5672.8052    16117.588 
   50400   -254665.68    87.623841   -254578.05    428.22965    5829.2634    16117.588 
   50500   -254666.19    90.217198   -254575.97    440.90374    5937.1777    16117.588 
   50600   -254665.72    86.337162   -254579.38    421.94147    5681.8209    16117.588 
   50700   -254668.96    86.776135   -254582.19    424.08679    5751.2982    16117.588 
   50800   -254669.11    86.429371   -254582.68    422.39211    5688.1038    16117.588 
   50900   -254670.62    88.262904   -254582.36    431.35283    5812.2502    16117.588 
   51000   -254668.48    88.015075   -254580.47    430.14166    5792.6927    16117.588 
   51100   -254666.34    88.481694   -254577.86     432.4221    5823.2969    16117.588 
   51200   -254665.64    87.174971   -254578.47    426.03596    5934.3331    16117.588 
   51300   -254665.01     84.16091   -254580.85    411.30583    5695.5444    16117.588 
   51400   -254667.45    85.640871   -254581.81    418.53861    5673.3599    16117.588 
   51500   -254665.85    88.137438   -254577.71    430.73967    5825.8612    16117.588 
   51600   -254662.77    87.186264   -254575.58    426.09115    5736.5736    16117.588 
   51700   -254664.25    88.010422   -254576.24    430.11893    5793.3765    16117.588 
   51800   -254667.01    88.050941   -254578.96    430.31694    5797.3887    16117.588 
   51900   -254664.12    83.835031   -254580.29    409.71322    5571.0845    16117.588 
   52000   -254662.13    83.294934   -254578.83    407.07369    5535.5356    16117.588 
   52100   -254662.85    89.824527   -254573.02     438.9847    6000.8883    16117.588 
   52200   -254663.02    88.458666   -254574.56    432.30955    5823.4145    16117.588 
   52300   -254663.23    86.247418   -254576.99    421.50288    5677.1546    16117.588 
   52400    -254665.5    87.477072   -254578.03    427.51237    5784.5338    16117.588 
   52500   -254666.32    87.564652   -254578.75    427.94038    5763.8949    16117.588 
   52600   -254666.03    85.510145   -254580.52    417.89973    5627.6282    16117.588 
   52700   -254667.59    85.026318   -254582.56     415.5352    5596.7111    16117.588 
   52800    -254670.5    89.560939   -254580.94    437.69651     5895.981    16117.588 
   52900   -254664.87    88.039149   -254576.83    430.25932    5849.6323    16117.588 
   53000   -254663.97    86.727751   -254577.25    423.85034    5704.1093    16117.588 
   53100   -254667.37     87.48084   -254579.89    427.53078    5780.9879    16117.588 
   53200   -254665.68    85.544902   -254580.13    418.06959     5668.459    16117.588 
   53300   -254667.28    88.269784   -254579.01    431.38646    5809.3271    16117.588 
   53400   -254665.08     88.64329   -254576.43    433.21184    5834.7529    16117.588 
   53500   -254662.55    88.127574   -254574.42    430.69146    5799.1684    16117.588 
   53600   -254663.38    88.766179   -254574.62    433.81241    5842.1242    16117.588 
   53700    -254663.1    83.673817   -254579.42    408.92534    5503.4986    16117.588 
   53800   -254667.88    87.197926   -254580.68    426.14815    5765.0435    16117.588 
   53900   -254662.87    83.240593   -254579.63    406.80812     5476.387    16117.588 
   54000   -254663.38    87.563488   -254575.82    427.93469    5807.5898    16117.588 
   54100   -254662.52    87.031753   -254575.48    425.33603    5727.1722    16117.588 
   54200   -254664.43    86.965787   -254577.46    425.01365    5721.1466    16117.588 
   54300   -254665.35    86.503948   -254578.85    422.75658    5690.7323    16117.588 
   54400   -254667.74    87.670689   -254580.07     428.4586    5858.9819    16117.588 
   54500   -254665.09    85.686547    -254579.4    418.76183    5672.2266    16117.588 
   54600   -254664.09    85.078411   -254579.02    415.78979    5596.5204    16117.588 
   54700   -254665.77    87.744945   -254578.03     428.8215    5775.4102    16117.588 
   54800   -254662.07    86.236118   -254575.83    421.44766    5674.5813    16117.588 
   54900   -254663.34    88.226662   -254575.12    431.17572    5806.1289    16117.588 
   55000   -254664.55    86.720431   -254577.83    423.81456    5826.7567    16117.588 
   55100   -254667.73    87.292108   -254580.44    426.60843    5743.8553    16117.588 
   55200   -254665.43    85.947048   -254579.48    420.03493    5652.7439    16117.588 
   55300   -254665.57    90.425334   -254575.15    441.92093    5953.3829    16117.588 
   55400   -254663.03    88.494118   -254574.54    432.48281    5910.2197    16117.588 
   55500   -254665.92    87.918043      -254578    429.66745    5859.8815    16117.588 
   55600   -254667.16    85.701206   -254581.46    418.83347    5750.8005    16117.588 
   55700   -254667.63    86.706609   -254580.92    423.74701    5745.6513    16117.588 
   55800   -254664.48    87.075579    -254577.4    425.55022    5864.2482    16117.588 
   55900   -254661.49    85.880659   -254575.61    419.71048    5731.0064    16117.588 
   56000   -254663.57    87.896598   -254575.67    429.56265    5810.5789    16117.588 
   56100   -254664.94    85.650925   -254579.29    418.58774    5636.4661    16117.588 
   56200   -254668.25    85.590632   -254582.66    418.29308    5672.4586    16117.588 
   56300   -254668.64    87.035955    -254581.6    425.35657    5787.2201    16117.588 
   56400    -254667.8    88.197898   -254579.61    431.03514    5804.2781    16117.588 
   56500   -254665.42      88.7601   -254576.66     433.7827    5840.2369    16117.588 
   56600   -254663.73     87.69714   -254576.03    428.58787     5771.076    16117.588 
   56700   -254664.61    89.140458   -254575.47    435.64157    5938.5339    16117.588 
   56800    -254664.6     88.33186   -254576.27    431.68983    5847.2931    16117.588 
   56900      -254665    86.362674   -254578.64    422.06615    5681.6686    16117.588 
   57000   -254665.36    83.711892   -254581.65    409.11142    5507.0861    16117.588 
   57100   -254667.91    85.192515   -254582.72    416.34743    5600.6927    16117.588 
   57200   -254667.47    85.597449   -254581.87     418.3264    5629.7293    16117.588 
   57300    -254665.5    87.129626   -254578.37    425.81435     5732.649    16117.588 
   57400      -254663    86.800513    -254576.2    424.20593    5818.8547    16117.588 
   57500   -254663.81    88.240352   -254575.56    431.24262    5883.7882    16117.588 
   57600   -254664.47    86.745264   -254577.72    423.93592    5749.1854    16117.588 
   57700   -254664.59    82.580065   -254582.01    403.58003    5460.0516    16117.588 
   57800   -254668.98    88.560255   -254580.42    432.80603     5829.335    16117.588 
   57900   -254666.62     87.48247   -254579.14    427.53875    5757.2838    16117.588 
   58000   -254667.24    85.831945   -254581.41    419.47241    5797.3317    16117.588 
   58100   -254669.44    84.981223   -254584.45    415.31481     5591.398    16117.588 
   58200    -254670.2    87.321167   -254582.87    426.75044    5805.3032    16117.588 
   58300   -254666.04    86.093816   -254579.95    420.75221    5674.2868    16117.588 
   58400   -254667.33    88.306937   -254579.03    431.56803    5813.5157    16117.588 
   58500    -254664.9    86.068065   -254578.83    420.62636    5664.9751    16117.588 
   58600   -254665.71    85.867187   -254579.84    419.64464    5710.6614    16117.588 
   58700   -254663.41    84.372271   -254579.04    412.33879      5550.19    16117.588 
   58800   -254665.75     90.58811   -254575.16    442.71644      5964.64    16117.588 
   58900   -254663.13    88.513468   -254574.62    432.57738    5825.5456    16117.588 
   59000   -254663.37    85.429402   -254577.94    417.50513    5726.4827    16117.588 
   59100   -254662.44    82.345114   -254580.09    402.43179    5544.7442    16117.588 
   59200   -254665.02     88.24084   -254576.78    431.24501    5870.6195    16117.588 
   59300   -254662.88    86.830454   -254576.05    424.35226    5735.6019    16117.588 
   59400   -254667.32    90.864585   -254576.46    444.06761     6039.961    16117.588 
   59500   -254669.63    90.928674    -254578.7    444.38082    5986.4834    16117.588 
   59600   -254669.15    87.257785   -254581.89    426.44069    5741.3642    16117.588 
   59700   -254670.12    88.276826   -254581.84    431.42088    5811.8275    16117.588 
   59800   -254667.97    87.175474   -254580.79    426.03842    5737.5091    16117.588 
   59900   -254666.18    86.943744   -254579.24    424.90592    5724.1591    16117.588 
   60000   -254666.61     89.88743   -254576.72    439.29212    5919.4316    16117.588 
   60100   -254665.41    89.200225   -254576.21    435.93365    5868.2172    16117.588 
   60200   -254667.19     88.00637   -254579.19    430.09912    5853.5257    16117.588 
   60300    -254666.6     85.32994   -254581.27    417.01904    5615.3366    16117.588 
   60400   -254667.36     88.28356   -254579.07    431.45378    5810.5732    16117.588 
   60500    -254666.3     90.76596   -254575.53    443.58561     5977.494    16117.588 
   60600   -254665.12    88.539488   -254576.58    432.70454    5928.0651    16117.588 
   60700   -254666.42    88.395304   -254578.03    431.99989    5820.2556    16117.588 
   60800   -254663.55    85.949071    -254577.6    420.04482    5656.0941    16117.588 
   60900   -254664.36    87.650453   -254576.71    428.35971    5794.7297    16117.588 
   61000   -254663.49    86.795198   -254576.69    424.17996    5711.6619    16117.588 
   61100    -254663.9    85.274052   -254578.62    416.74591    5649.0089    16117.588 
   61200   -254664.96    83.506079   -254581.45    408.10558    5582.3904    16117.588 
   61300   -254666.35    84.002516   -254582.34    410.53174    5528.4903    16117.588 
   61400   -254664.89    87.258873   -254577.63      426.446     5852.716    16117.588 
   61500   -254664.24    88.874924   -254575.36    434.34386    5849.8358    16117.588 
   61600   -254665.66    87.768759   -254577.89    428.93788    5800.1139    16117.588 
   61700   -254665.81    85.378597   -254580.44    417.25684    5681.1957    16117.588 
   61800   -254663.29    82.808816   -254580.48    404.69797     5492.627    16117.588 
   61900   -254663.12    85.595668   -254577.53    418.31769    5628.0182    16117.588 
   62000   -254662.74    88.129858   -254574.61    430.70262    5797.2378    16117.588 
   62100   -254664.77    89.089134   -254575.69    435.39074     5859.208    16117.588 
   62200   -254667.82    90.335789   -254577.48    441.48331    5946.4427    16117.588 
   62300   -254667.27    87.392765   -254579.88    427.10035    5784.5953    16117.588 
   62400   -254667.25     86.10798   -254581.14    420.82143    5691.5488    16117.588 
   62500   -254667.65    87.130974   -254580.52    425.82094    5731.6049    16117.588 
   62600   -254666.55    88.407201   -254578.15    432.05804    5856.0138    16117.588 
   62700   -254664.55    88.973853   -254575.57    434.82734    5875.9065    16117.588 
   62800    -254666.6    89.717621   -254576.88    438.46224    5957.0733    16117.588 
   62900   -254668.58    87.207723   -254581.38    426.19603    5762.4066    16117.588 
   63000   -254668.02    86.317784    -254581.7    421.84677    5707.4005    16117.588 
   63100   -254667.11    86.979591   -254580.13    425.08111    5722.7011    16117.588 
   63200   -254665.18    88.279841    -254576.9    431.43561    5808.2988    16117.588 
   63300   -254664.65    88.878194   -254575.77    434.35984    5950.5859    16117.588 
   63400   -254665.04    87.413122   -254577.62    427.19984     5750.747    16117.588 
   63500   -254662.62    85.159078   -254577.46    416.18401    5601.4597    16117.588 
   63600   -254664.47    87.721686   -254576.75    428.70783     5771.988    16117.588 
   63700   -254659.27    83.657294   -254575.62    408.84459     5500.368    16117.588 
   63800   -254662.04    89.192666   -254572.85    435.89671    5867.3878    16117.588 
   63900   -254662.04    88.535423   -254573.51    432.68467    5824.3074    16117.588 
   64000    -254665.6    87.232532   -254578.37    426.31727    5737.4754    16117.588 
   64100   -254664.49    84.960868   -254579.53    415.21533    5587.0314    16117.588 
   64200   -254666.24    88.092103   -254578.15    430.51811     5794.529    16117.588 
   64300   -254664.99    89.543008   -254575.45    437.60888    5952.7566    16117.588 
   64400   -254661.53    90.267362   -254571.26    441.14889    5938.7022    16117.588 
   64500   -254659.16    86.790755   -254572.37    424.15825    5707.7972    16117.588 
   64600   -254663.78    88.730436   -254575.05    433.63773    5882.6176    16117.588 
   64700   -254664.31     87.90427    -254576.4    429.60014    5870.9774    16117.588 
   64800   -254665.84    85.502156   -254580.33    417.86069    5624.8027    16117.588 
   64900   -254665.65    83.807131   -254581.84    409.57687    5513.2361    16117.588 
   65000   -254666.15    87.167039   -254578.98     425.9972    5762.4609    16117.588 
   65100   -254665.59    88.157455   -254577.43    430.83749    5862.5456    16117.588 
   65200   -254666.03    86.944505   -254579.08    424.90964    5717.4212    16117.588 
   65300   -254667.77    84.247063   -254583.53    411.72688    5540.7824    16117.588 
   65400   -254668.45    84.504575   -254583.95    412.98537    5601.2946    16117.588 
   65500   -254666.98    86.276547    -254580.7    421.64524    5675.6977    16117.588 
   65600   -254665.32    86.265627   -254579.06    421.59187    5673.7539    16117.588 
   65700   -254665.52    86.614467    -254578.9     423.2967    5739.8383    16117.588 
   65800   -254665.86    86.448031   -254579.41     422.4833     5712.126    16117.588 
   65900   -254665.53    85.075666   -254580.45    415.77637    5666.9233    16117.588 
   66000   -254665.74    86.651458   -254579.09    423.47748    5698.0702    16117.588 
   66100   -254662.79    86.813069   -254575.97     424.2673    5709.6646    16117.588 
   66200   -254665.52    89.274687   -254576.24    436.29756    5912.3103    16117.588 
   66300   -254664.52    86.286392   -254578.23    421.69336    5675.3895    16117.588 
   66400    -254666.9    84.930728   -254581.97    415.06804    5584.6451    16117.588 
   66500    -254669.5    87.409733   -254582.09    427.18327    5751.0359    16117.588 
   66600      -254666    88.064055   -254577.94    430.38104     5940.002    16117.588 
   66700   -254667.46    91.288245   -254576.17    446.13809    6035.6418    16117.588 
   66800   -254665.38    87.826439   -254577.56    429.21977    5847.7294    16117.588 
   66900   -254667.57    87.761264   -254579.81    428.90125    5774.7155    16117.588 
   67000   -254667.81    85.108188    -254582.7    415.93531    5599.1699    16117.588 
   67100   -254667.02    84.172517   -254582.85    411.36256    5568.8329    16117.588 
   67200   -254664.34    83.235053    -254581.1    406.78104    5473.2291    16117.588 
   67300    -254664.5    85.943368   -254578.56    420.01695    5858.5893    16117.588 
   67400   -254665.04    88.593538   -254576.45    432.96869     5875.892    16117.588 
   67500   -254663.29    87.215807   -254576.08    426.23553    5738.1634    16117.588 
   67600   -254663.85    86.784823   -254577.07    424.12925    5744.4767    16117.588 
   67700   -254666.21    84.990524   -254581.22    415.36027    5591.6912    16117.588 
   67800   -254668.12    85.290423   -254582.83    416.82592    5610.7442    16117.588 
   67900   -254666.08    85.492675   -254580.59    417.81435    5623.7283    16117.588 
   68000   -254667.55    89.899771   -254577.65    439.35243    5916.3164    16117.588 
   68100   -254664.48    87.144758   -254577.34     425.8883    5731.6924    16117.588 
   68200    -254665.7    87.337654   -254578.36    426.83101    5769.9889    16117.588 
   68300   -254663.68     85.00275   -254578.67    415.42002    5682.9512    16117.588 
   68400   -254662.72    88.848093   -254573.88    434.21273    5843.6436    16117.588 
   68500   -254663.18    89.887851   -254573.29    439.29417    5957.2652    16117.588 
   68600   -254663.92     88.55686   -254575.36    432.78944    5825.8666    16117.588 
   68700   -254665.92    86.565798   -254579.35    423.05885    5693.7212    16117.588 
   68800    -254664.5    84.514416   -254579.99    413.03347    5558.5435    16117.588 
   68900   -254664.17    85.434295   -254578.74    417.52904    5619.4706    16117.588 
   69000   -254663.61    87.832458   -254575.78    429.24919    5852.2176    16117.588 
   69100   -254664.48    87.829839   -254576.65    429.23639    5779.2797    16117.588 
   69200    -254665.1     86.08175   -254579.02    420.69324    5701.8083    16117.588 
   69300   -254666.85    86.860968   -254579.99    424.50139    5737.4638    16117.588 
   69400   -254666.89    87.320955   -254579.57     426.7494    5746.1526    16117.588 
   69500   -254664.03     85.91243   -254578.12    419.86575    5649.7491    16117.588 
   69600   -254664.91    88.164211   -254576.75    430.87051    5798.7133    16117.588 
   69700   -254659.11     87.73669   -254571.38    428.78116    5773.2637    16117.588 
   69800    -254660.8    90.159695   -254570.64    440.62271    6031.1705    16117.588 
   69900   -254658.79    85.268986   -254573.52    416.72115    5609.8265    16117.588 
   70000   -254660.86    86.210444   -254574.65    421.32219    5672.6808    16117.588 
   70100   -254663.28    87.995249   -254575.29    430.04477    5790.0349    16117.588 
   70200   -254662.34    85.784775   -254576.55    419.24188    5642.6926    16117.588 
   70300    -254665.3    87.369318   -254577.93    426.98576    5745.7165    16117.588 
   70400   -254665.32    83.864567   -254581.46    409.85757    5515.5753    16117.588 
   70500    -254667.6    86.933251   -254580.67    424.85464    5718.0245    16117.588 
   70600   -254663.79    85.974458   -254577.82    420.16889    5678.8063    16117.588 
   70700   -254665.27    89.371961    -254575.9    436.77295     5880.333    16117.588 
   70800   -254665.61    88.322888   -254577.29    431.64599    5810.3379    16117.588 
   70900   -254663.37    82.984042   -254580.39    405.55432    5456.9422    16117.588 
   71000   -254667.77    83.403866   -254584.36    407.60606     5512.694    16117.588 
   71100   -254667.93    85.760272   -254582.17    419.12214    5641.2337    16117.588 
   71200   -254665.34    87.071673   -254578.26    425.53113    5727.8198    16117.588 
   71300    -254666.8    87.981203   -254578.82    429.97613     5788.701    16117.588 
   71400   -254665.53    84.677743   -254580.85    413.83167    5570.2561    16117.588 
   71500   -254670.38    87.914042   -254582.47     429.6479     5837.725    16117.588 
   71600   -254669.44    85.394156   -254584.04    417.33288    5617.6236    16117.588 
   71700   -254667.46    84.765776   -254582.69     414.2619    5605.9351    16117.588 
   71800   -254664.58    86.732643   -254577.84    423.87424    5815.5291    16117.588 
   71900   -254665.05    88.012031   -254577.04    430.12679    5864.8534    16117.588 
   72000   -254666.04    87.176552   -254578.86    426.04369    5805.7864    16117.588 
   72100   -254668.59    87.711371   -254580.88    428.65742    5794.8886    16117.588 
   72200   -254669.79    85.869879   -254583.92     419.6578    5647.9791    16117.588 
   72300    -254670.9    84.169445   -254586.73    411.34755    5580.6944    16117.588 
   72400   -254666.12    82.305805   -254583.82    402.23968    5412.9016    16117.588 
   72500   -254666.58    86.760238   -254579.82    424.00911    5708.0616    16117.588 
   72600   -254666.12    86.512083    -254579.6    422.79634    5692.7092    16117.588 
   72700   -254667.14    88.184616   -254578.95    430.97023      5801.39    16117.588 
   72800   -254665.83    85.869295   -254579.96    419.65494    5648.8088    16117.588 
   72900   -254669.97      87.2881   -254582.68    426.58884     5787.239    16117.588 
   73000   -254667.08    82.965949   -254584.12     405.4659    5458.4331    16117.588 
   73100   -254666.36    86.699249   -254579.66    423.71104    5706.3861    16117.588 
   73200   -254665.25    88.653628    -254576.6    433.26236    5919.6038    16117.588 
   73300   -254663.33    87.112439   -254576.22    425.73036    5734.4569    16117.588 
   73400   -254667.06    88.836641   -254578.22    434.15677    5847.9618    16117.588 
   73500   -254668.86    86.634476   -254582.23    423.39449     5701.533    16117.588 
   73600   -254668.75    86.471206   -254582.28    422.59657    5754.5224    16117.588 
   73700   -254665.78    83.981345    -254581.8    410.42827    5587.4637    16117.588 
   73800   -254663.83     87.04066   -254576.79    425.37956    5756.7335    16117.588 
   73900   -254661.15    86.191834   -254574.96    421.23123    5799.7114    16117.588 
   74000   -254665.61     89.31711   -254576.29    436.50489    5879.3061    16117.588 
   74100   -254666.92    87.390441   -254579.53    427.08899    5751.5716    16117.588 
   74200   -254665.45    85.278586   -254580.17    416.76807    5612.2562    16117.588 
   74300   -254668.33    88.749298   -254579.58    433.72991    5842.2733    16117.588 
   74400    -254665.9     86.30823   -254579.59    421.80008    5720.2013    16117.588 
   74500   -254663.26    86.510417   -254576.75     422.7882    5731.6097    16117.588 
   74600   -254662.64    89.969913   -254572.67    439.69522    5960.6967    16117.588 
   74700    -254662.6    87.567963   -254575.03    427.95656    5765.0698    16117.588 
   74800   -254664.17    85.694388   -254578.48    418.80015    5640.6434    16117.588 
   74900   -254665.49    86.058234   -254579.43    420.57831    5665.1092    16117.588 
   75000   -254665.18    86.340178   -254578.84    421.95621    5710.5636    16117.588 
   75100   -254667.49    89.977159   -254577.51    439.73063    5924.4007    16117.588 
   75200    -254664.9    89.478584   -254575.42    437.29403    5890.3813    16117.588 
   75300   -254665.38    86.742158   -254578.63    423.92074    5737.4272    16117.588 
   75400   -254665.61    84.864063   -254580.74    414.74224    5678.5618    16117.588 
   75500    -254664.4    86.012249   -254578.39    420.35358    5661.7108    16117.588 
   75600   -254661.65     86.11252   -254575.54    420.84362    5669.2004    16117.588 
   75700   -254663.47    87.752348   -254575.72    428.85768    5826.2705    16117.588 
   75800   -254664.33    86.306598   -254578.02     421.7921    5836.5112    16117.588 
   75900   -254664.47    85.284711   -254579.18      416.798    5612.3486    16117.588 
   76000   -254664.94    85.982548   -254578.96    420.20843    5658.1874    16117.588 
   76100   -254664.48    86.612858   -254577.87    423.28884    5752.6401    16117.588 
   76200   -254662.12    86.747609   -254575.37    423.94738    5734.8235    16117.588 
   76300   -254661.67    87.100546   -254574.57    425.67224    5733.3251    16117.588 
   76400   -254663.25    86.103358   -254577.14    420.79884    5666.4544    16117.588 
   76500   -254666.16    85.558637    -254580.6    418.13672    5673.3111    16117.588 
   76600   -254668.02    86.721912    -254581.3     423.8218    5798.6107    16117.588 
   76700   -254665.35    85.306624   -254580.04     416.9051    5636.8493    16117.588 
   76800   -254666.64    88.916061   -254577.72     434.5449    5852.4568    16117.588 
   76900   -254662.95    90.474945   -254572.48    442.16338    5955.9676    16117.588 
   77000   -254662.75    90.873166   -254571.88    444.10954    6017.9531    16117.588 
   77100   -254662.54    86.868462   -254575.67    424.53801    5716.9991    16117.588 
   77200   -254664.23    87.610549   -254576.62    428.16469    5792.5901    16117.588 
   77300   -254665.48    87.496356   -254577.98    427.60661    5781.2023    16117.588 
   77400   -254664.38    85.021534   -254579.36    415.51182    5594.3452    16117.588 
   77500   -254665.49    84.987422   -254580.51    415.34511    5620.0462    16117.588 
   77600   -254663.33    84.027427    -254579.3    410.65348    5557.4064    16117.588 
   77700    -254664.1    88.336454   -254575.77    431.71229     5842.468    16117.588 
   77800   -254662.63    86.571229   -254576.06    423.08539    5758.8046    16117.588 
   77900    -254664.1    85.464797   -254578.64     417.6781    5649.9027    16117.588 
   78000   -254666.16     84.18898   -254581.97    411.44301    5706.0774    16117.588 
   78100    -254667.2    86.125099   -254581.08    420.90509    5669.4692    16117.588 
   78200   -254666.26    90.418839   -254575.85    441.88919    6121.4535    16117.588 
   78300   -254664.39    87.343096   -254577.04    426.85761    5781.8896    16117.588 
   78400   -254667.36    89.178442   -254578.18    435.82719    5895.8067    16117.588 
   78500   -254664.02     84.36262   -254579.66    412.29162    5551.6634    16117.588 
   78600   -254665.41    84.690727   -254580.72    413.89512    5623.2412    16117.588 
   78700    -254665.4    87.661804   -254577.74    428.41518    5771.6315    16117.588 
   78800   -254662.75    88.365732   -254574.39    431.85537    5817.9013    16117.588 
   78900   -254662.55     87.74723   -254574.81    428.83267    5929.0896    16117.588 
   79000   -254664.35    85.954622    -254578.4    420.07195    5725.3429    16117.588 
   79100   -254666.59     87.39005    -254579.2    427.08708    5752.3184    16117.588 
   79200   -254664.93    85.655056   -254579.27    418.60793    5639.2592    16117.588 
   79300   -254666.07    88.015722   -254578.06    430.14482    5795.0152    16117.588 
   79400   -254664.43    85.864754   -254578.57    419.63275    5651.4312    16117.588 
   79500   -254666.23    88.195058   -254578.04    431.02127    5806.6397    16117.588 
   79600   -254665.27    86.420974   -254578.85    422.35107     5688.052    16117.588 
   79700   -254666.27    86.914547   -254579.35    424.76323    5720.7626    16117.588 
   79800   -254665.05    86.028057   -254579.02    420.43083    5833.6189    16117.588 
   79900   -254666.07    86.948832   -254579.12    424.93079    5723.7332    16117.588 
   80000   -254664.32    89.270893   -254575.05    436.27902    5877.3322    16117.588 
   80100    -254660.4    87.341502   -254573.06    426.84982    5749.9031    16117.588 
   80200    -254661.3    86.114603   -254575.18     420.8538    5667.6045    16117.588 
   80300   -254665.32    86.255194   -254579.06    421.54089    5806.2623    16117.588 
   80400   -254666.46    86.580984   -254579.88    423.13306    5700.7481    16117.588 
   80500   -254666.89    87.893489      -254579    429.54746     5786.752    16117.588 
   80600   -254664.78     86.36202   -254578.42    422.06296    5711.8966    16117.588 
   80700   -254667.56    89.535691   -254578.03    437.57312     5894.997    16117.588 
   80800   -254665.38    86.353584   -254579.03    422.02173    5830.2723    16117.588 
   80900   -254665.48     85.04794   -254580.44    415.64087    5597.8591    16117.588 
   81000   -254666.01    86.080951   -254579.93    420.68933     5667.338    16117.588 
   81100   -254664.46    88.739373   -254575.72     433.6814    5842.2551    16117.588 
   81200   -254663.09    88.128712   -254574.96    430.69702    5803.9742    16117.588 
   81300   -254663.56    87.786822   -254575.78    429.02616     5780.059    16117.588 
   81400   -254665.88    86.696783   -254579.19    423.69899    5707.6242    16117.588 
   81500   -254667.78    85.200531   -254582.58     416.3866    5632.9395    16117.588 
   81600   -254665.75     83.98458   -254581.77    410.44408    5527.1866    16117.588 
   81700   -254665.03    86.718792   -254578.31    423.80655    5705.6317    16117.588 
   81800   -254663.21    87.176725   -254576.04    426.04453    5738.0695    16117.588 
   81900   -254660.07    86.319938   -254573.75     421.8573    5757.8887    16117.588 
   82000   -254663.19    88.661269   -254574.53     433.2997    5882.7323    16117.588 
   82100   -254662.53    82.980696   -254579.55    405.53797    5458.3233    16117.588 
   82200   -254666.12    86.610141   -254579.51    423.27556    5699.2664    16117.588 
   82300   -254661.95    85.038914   -254576.91    415.59676    5763.1279    16117.588 
   82400   -254662.64    87.941539    -254574.7    429.78228    5786.3048    16117.588 
   82500   -254663.04    88.272244   -254574.76    431.39848    5835.6322    16117.588 
   82600   -254664.27    84.894157   -254579.38    414.88931    5626.5673    16117.588 
   82700   -254665.91    85.273558   -254580.64     416.7435    5633.6628    16117.588 
   82800   -254663.76    84.940879   -254578.82    415.11765     5719.362    16117.588 
   82900   -254664.99     87.28735    -254577.7    426.58517    5743.1187    16117.588 
   83000   -254664.67    86.367203    -254578.3    422.08829    5682.5508    16117.588 
   83100   -254667.29    86.503359   -254580.79     422.7537    5690.8231    16117.588 
   83200   -254666.05    83.653651   -254582.39    408.82679    5526.4362    16117.588 
   83300    -254666.1     87.47876   -254578.62    427.52062    5755.7994    16117.588 
   83400   -254662.61    86.976055   -254575.63    425.06383    5807.7232    16117.588 
   83500   -254661.93     85.98026   -254575.95    420.19724      5654.68    16117.588 
   83600   -254666.26     88.39789   -254577.86    432.01253    5872.6137    16117.588 
   83700   -254667.48    87.019286   -254580.46     425.2751    5726.0231    16117.588 
   83800   -254668.83    84.234483   -254584.59    411.66539    5609.7562    16117.588 
   83900   -254669.41    84.015439    -254585.4    410.59489    5526.6292    16117.588 
   84000   -254668.12    85.315722    -254582.8    416.94956    5612.8177    16117.588 
   84100   -254664.93    83.670382   -254581.26    408.90856    5502.7427    16117.588 
   84200   -254664.92    86.674283   -254578.24    423.58903    5702.7928    16117.588 
   84300   -254664.19    87.642838   -254576.55    428.32249    5817.9092    16117.588 
   84400   -254664.11    86.466053   -254577.64    422.57138     5688.143    16117.588 
   84500    -254666.4    85.396277      -254581    417.34324    5618.6091    16117.588 
   84600   -254666.37    83.258346   -254583.11    406.89488    5544.7289    16117.588 
   84700   -254664.92    86.033607   -254578.88    420.45796    5706.4133    16117.588 
   84800   -254662.18     85.28906   -254576.89    416.81926    5672.8295    16117.588 
   84900   -254664.36    88.954143   -254575.41    434.73102    5918.8057    16117.588 
   85000   -254662.75    88.005482   -254574.75    430.09478    5789.9826    16117.588 
   85100   -254664.92    87.172295   -254577.75    426.02288    5769.5206    16117.588 
   85200   -254665.49    84.426893   -254581.07    412.60573    5553.7662    16117.588 
   85300    -254667.3    87.587562   -254579.71    428.05235    5761.9951    16117.588 
   85400   -254665.13    88.184876   -254576.95    430.97151    5830.8294    16117.588 
   85500   -254660.87    85.429579   -254575.44    417.50599    5641.8801    16117.588 
   85600   -254663.83    88.609552   -254575.22    433.04695    5900.7292    16117.588 
   85700   -254663.81    88.078815   -254575.74    430.45317    5935.7123    16117.588 
   85800   -254662.09    81.823141   -254580.27    399.88084    5380.8002    16117.588 
   85900      -254666    85.025651   -254580.97    415.53194    5590.4981    16117.588 
   86000   -254666.79    88.275187   -254578.51    431.41287    5837.0219    16117.588 
   86100   -254665.59    89.482942    -254576.1    437.31533    6013.0731    16117.588 
   86200   -254667.78    87.581556    -254580.2      428.023    5761.1069    16117.588 
   86300   -254667.52    83.793607   -254583.72    409.51077    5507.8376    16117.588 
   86400   -254667.64    87.293251   -254580.34    426.61401    5788.3231    16117.588 
   86500   -254665.61     88.00339   -254577.61    430.08456    5839.8495    16117.588 
   86600   -254664.11    86.551056   -254577.56     422.9868    5781.3672    16117.588 
   86700   -254668.59    89.047716   -254579.54    435.18832    5859.0707    16117.588 
   86800   -254666.45    82.625109   -254583.82    403.80016    5433.1229    16117.588 
   86900   -254668.33    86.378516   -254581.95    422.14357    5680.9986    16117.588 
   87000   -254667.25    88.172392   -254579.08    430.91049    5800.9277    16117.588 
   87100   -254665.69     88.02706   -254577.66    430.20024    5834.6632    16117.588 
   87200   -254665.49    89.479357   -254576.01    437.29781    5916.9458    16117.588 
   87300    -254664.5    86.588081   -254577.92    423.16775    5695.0778    16117.588 
   87400   -254667.24    84.958643   -254582.28    415.20447    5589.3026    16117.588 
   87500   -254667.96    85.961361      -254582    420.10488    5654.7651    16117.588 
   87600    -254664.2    85.043051   -254579.16    415.61698    5594.8164    16117.588 
   87700   -254663.45     86.82373   -254576.62     424.3194    5737.7213    16117.588 
   87800   -254663.47    87.122185   -254576.35    425.77799     5782.239    16117.588 
   87900   -254665.64    88.065346   -254577.57    430.38734    5832.9136    16117.588 
   88000   -254665.33    87.150266   -254578.18    425.91522    5732.8909    16117.588 
   88100   -254664.29    86.794486    -254577.5    424.17648    5783.2596    16117.588 
   88200   -254662.47    86.451907   -254576.02    422.50225    5684.9397    16117.588 
   88300   -254664.41    89.358865   -254575.05    436.70895    5907.1712    16117.588 
[...]
  403100   -254660.13    89.134104      -254571    435.61051    5927.6474    16117.588 
  403200   -254661.31      85.3691   -254575.94    417.21042    5668.4137    16117.588 
  403300   -254663.79    86.442536   -254577.35    422.45645    5690.0253    16117.588 
  403400   -254666.39    88.658177   -254577.73    433.28459    5837.1469    16117.588 
  403500   -254667.41    88.688654   -254578.72    433.43353    5839.1909    16117.588 
  403600   -254666.55    83.497463   -254583.05    408.06348     5493.347    16117.588 
  403700    -254668.6    85.553561   -254583.04    418.11191    5673.7287    16117.588 
  403800   -254666.95    86.305987   -254580.65    421.78911    5714.6156    16117.588 
  403900   -254666.54    86.869506   -254579.67    424.54311    5717.6577    16117.588 
  404000   -254667.35    88.482132   -254578.87    432.42423    5866.6648    16117.588 
  404100   -254667.56    87.940938   -254579.62    429.77935    5789.0453    16117.588 
  404200   -254665.39    83.772444   -254581.62    409.40735    5587.8162    16117.588 
  404300   -254669.76    83.905487   -254585.85    410.05755    5522.2015    16117.588 
  404400   -254671.81    84.754647   -254587.06     414.2075    5605.1657    16117.588 
  404500    -254667.4    85.485423   -254581.92    417.77891     5627.153    16117.588 
  404600   -254668.35    87.447871    -254580.9    427.36966    5810.8568    16117.588 
  404700   -254668.79    87.425467   -254581.36    427.26017    5756.0893    16117.588 
  404800   -254667.89    85.344736   -254582.54    417.09135     5617.474    16117.588 
  404900   -254669.82    87.719453    -254582.1    428.69692    5775.6859    16117.588 
  405000   -254666.63    87.897588   -254578.74    429.56749    5786.5228    16117.588 
  405100   -254664.77    88.209845   -254576.56    431.09353    5836.8533    16117.588 
  405200   -254667.56    89.013235   -254578.54    435.01981    5859.9124    16117.588 
  405300   -254665.06    82.626082   -254582.43    403.80492    5437.6931    16117.588 
  405400   -254666.41    86.347916   -254580.06    421.99403     5752.566    16117.588 
  405500   -254665.09    87.491393    -254577.6    427.58236    5759.7309    16117.588 
  405600   -254665.47    89.094601   -254576.37    435.41745    5866.8545    16117.588 
  405700   -254664.26    87.426909   -254576.83    427.26722     5781.623    16117.588 
  405800   -254666.43    86.073461   -254580.36    420.65273    5735.0023    16117.588 
  405900   -254667.15    84.701979   -254582.44    413.95011    5574.8655    16117.588 
  406000   -254667.58    86.317985   -254581.26    421.84775     5681.296    16117.588 
  406100   -254664.59     86.96442   -254577.63    425.00697    5723.0724    16117.588 
  406200   -254663.44    88.019182   -254575.42    430.16174    5791.4704    16117.588 
  406300   -254662.29    85.137082   -254577.15    416.07652     5601.068    16117.588 
  406400   -254664.33    86.140447   -254578.19     420.9801    5694.1801    16117.588 
  406500   -254663.46    85.379047   -254578.08    417.25903    5619.2435    16117.588 
  406600   -254662.18    89.050317   -254573.13    435.20103    5920.4068    16117.588 
  406700   -254664.52    90.439387   -254574.08    441.98961    5954.9509    16117.588 
  406800   -254664.64    88.437116   -254576.21    432.20424    5847.1743    16117.588 
  406900   -254665.51    87.954637   -254577.56     429.8463    5789.4597    16117.588 
  407000   -254664.94    86.142396    -254578.8    420.98962    5668.9681    16117.588 
  407100    -254664.4    85.353714   -254579.05    417.13523     5616.387    16117.588 
  407200   -254664.14    85.281493   -254578.86    416.78228    5610.9906    16117.588 
  407300   -254663.59    88.035993   -254575.55    430.24389    5839.4526    16117.588 
  407400   -254664.84    89.340934    -254575.5    436.62132    5881.3059    16117.588 
  407500   -254665.82     87.14472   -254578.68    425.88812    5736.2101    16117.588 
  407600   -254666.44    85.843407    -254580.6    419.52843    5709.9798    16117.588 
  407700   -254666.94    87.201647   -254579.73    426.16633    5776.3891    16117.588 
  407800   -254664.76    89.046449   -254575.71    435.18213    5859.4676    16117.588 
  407900   -254663.54    90.479355   -254573.06    442.18494    5954.6566    16117.588 
  408000   -254664.21    89.071307   -254575.14    435.30361    5898.4001    16117.588 
  408100   -254664.38    86.747469   -254577.63     423.9467    5793.8496    16117.588 
  408200   -254664.56    86.230545   -254578.33    421.42042    5673.5959    16117.588 
  408300   -254665.54    88.262036   -254577.28    431.34859    5879.7618    16117.588 
  408400   -254664.56    86.821992   -254577.74     424.3109    5713.2759    16117.588 
  408500   -254663.25    84.796553   -254578.46    414.41231    5577.9382    16117.588 
  408600   -254666.35    87.735586   -254578.61    428.77576    5773.4765    16117.588 
  408700   -254667.41    87.356358   -254580.05    426.92242    5872.6942    16117.588 
  408800   -254667.14    86.253958   -254580.88    421.53485    5675.3503    16117.588 
  408900   -254667.92     88.78643   -254579.13    433.91138    5842.1492    16117.588 
  409000    -254667.3    88.540152   -254578.76    432.70779    5910.8352    16117.588 
  409100   -254667.26    86.204393   -254581.05    421.29261    5705.6238    16117.588 
  409200   -254666.46    83.617449   -254582.84    408.64987    5526.5953    16117.588 
  409300   -254665.81    86.981653   -254578.83    425.09119    5722.4591    16117.588 
  409400   -254663.05    86.506168   -254576.55    422.76743    5832.7374    16117.588 
  409500   -254662.37    87.460203   -254574.91    427.42993    5786.2743    16117.588 
  409600   -254661.11    86.961901   -254574.15    424.99466    5719.4433    16117.588 
  409700   -254663.35    88.704787   -254574.64    433.51238    5891.0687    16117.588 
  409800   -254666.09    87.013079   -254579.07    425.24477    5762.7281    16117.588 
  409900   -254665.81    85.262137   -254580.55    416.68768    5605.6157    16117.588 
  410000   -254665.11    86.824556   -254578.29    424.32344     5854.537    16117.588 
  410100   -254662.86    87.818595   -254575.04    429.18144    5809.7047    16117.588 
  410200   -254663.81    88.746776   -254575.07    433.71758    5973.4813    16117.588 
  410300   -254663.38    86.362965   -254577.02    422.06758    5679.4598    16117.588 
  410400   -254665.11    86.399753   -254578.71    422.24736     5681.617    16117.588 
  410500    -254663.4    84.454902   -254578.95    412.74261    5582.7956    16117.588 
  410600    -254663.7    87.625643   -254576.08    428.23846    5766.5104    16117.588 
  410700   -254664.83    91.107303   -254573.73     445.2538    5997.8706    16117.588 
  410800   -254664.17     86.96176   -254577.21    424.99397    5723.3481    16117.588 
  410900   -254668.27    88.370057    -254579.9    431.87651    5817.1903    16117.588 
  411000   -254664.73    85.780865   -254578.95    419.22278     5715.658    16117.588 
  411100   -254662.62    84.627659      -254578     413.5869    5637.8459    16117.588 
  411200   -254660.19    85.577328   -254574.62    418.22806    5706.8176    16117.588 
  411300   -254664.06    92.450298   -254571.61     451.8172    6083.1066    16117.588 
  411400   -254664.38    89.816977   -254574.57     438.9478    5973.5063    16117.588 
  411500   -254663.14    86.531958   -254576.61    422.89347    5694.4998    16117.588 
  411600      -254663    85.037864   -254577.96    415.59163    5645.6567    16117.588 
  411700    -254662.2    84.361907   -254577.84    412.28813    5600.7694    16117.588 
  411800   -254664.46    89.082951   -254575.37    435.36052    5892.0089    16117.588 
  411900    -254663.7    88.233654   -254575.47    431.20989    5805.3966    16117.588 
  412000   -254664.21    84.951128   -254579.26    415.16774    5729.1283    16117.588 
  412100   -254666.29    85.659515   -254580.63    418.62972    5732.3658    16117.588 
  412200   -254667.54    88.076067   -254579.47    430.43974    5796.9615    16117.588 
  412300   -254668.71    88.942036   -254579.77    434.67185    5855.5079    16117.588 
  412400   -254666.25    85.582484   -254580.67    418.25326    5632.8749    16117.588 
  412500    -254665.9    85.720381   -254580.18    418.92718    5640.4551    16117.588 
  412600   -254663.21    84.395407   -254578.81    412.45185    5554.8283    16117.588 
  412700   -254666.98    88.340411   -254578.64    431.73163    5898.2889    16117.588 
  412800    -254666.5    87.951045   -254578.55    429.82874    5788.4684    16117.588 
  412900   -254665.71    87.218639   -254578.49    426.24937    5737.4046    16117.588 
  413000   -254666.71    87.618975   -254579.09    428.20587    5767.6576    16117.588 
  413100   -254668.34    85.122767   -254583.21    416.00656    5602.8719    16117.588 
  413200    -254666.5    82.290027   -254584.21    402.16257    5439.8477    16117.588 
  413300   -254665.72    84.262104   -254581.46    411.80038    5545.1971    16117.588 
  413400    -254665.5    86.911221   -254578.59    424.74698    5849.1751    16117.588 
  413500   -254663.43    87.467961   -254575.96    427.46784    5758.2149    16117.588 
  413600   -254663.09    87.594386    -254575.5     428.0857    5762.6922    16117.588 
  413700   -254664.33    86.097923   -254578.23    420.77228    5744.7583    16117.588 
  413800   -254667.48    87.309816   -254580.17    426.69497    5748.2631    16117.588 
  413900    -254664.6    84.560589   -254580.04    413.25912    5666.3493    16117.588 
  414000   -254663.72    88.132649   -254575.59    430.71626    5800.0655    16117.588 
  414100   -254661.84    87.599924   -254574.24    428.11276    5765.5491    16117.588 
  414200   -254666.62    89.185315   -254577.44    435.86079    5868.9269    16117.588 
  414300   -254667.51    86.940494   -254580.57    424.89004    5743.8827    16117.588 
  414400   -254665.69    85.670975   -254580.02    418.68573    5637.8372    16117.588 
  414500   -254665.82    89.467583   -254576.36    437.24027    5953.3288    16117.588 
  414600   -254663.13     87.71609   -254575.42    428.68048    5846.5452    16117.588 
  414700   -254664.07    85.910203   -254578.16    419.85487    5687.9043    16117.588 
  414800   -254664.46    83.260256    -254581.2    406.90421    5579.6058    16117.588 
  414900   -254665.63    85.558645   -254580.07    418.13675    5629.1232    16117.588 
  415000   -254667.51    89.119965   -254578.39    435.54141     5907.062    16117.588 
  415100   -254663.68    87.489303   -254576.19    427.57214    5830.6987    16117.588 
  415200    -254662.4    88.814896   -254573.59     434.0505     5919.571    16117.588 
  415300   -254661.33    88.191104   -254573.13    431.00194    5805.7472    16117.588 
  415400   -254664.55    85.950186    -254578.6    420.05027    5687.3912    16117.588 
  415500   -254666.53     87.50351   -254579.02    427.64157    5759.3079    16117.588 
  415600   -254664.17    86.556562   -254577.61    423.01371    5697.2304    16117.588 
  415700   -254664.15    88.507028   -254575.64     432.5459    5855.2753    16117.588 
  415800   -254661.38    88.977693    -254572.4    434.84611    5856.6356    16117.588 
  415900   -254660.74    87.452736   -254573.29    427.39344    5751.7758    16117.588 
  416000   -254664.47    85.869325    -254578.6    419.65509    5714.3033    16117.588 
  416100   -254664.07    84.538482   -254579.54    413.15108    5589.4197    16117.588 
  416200   -254663.79    85.563182   -254578.23    418.15893    5630.6547    16117.588 
  416300   -254663.24    87.962362   -254575.27    429.88405    5835.6429    16117.588 
  416400   -254662.59    87.470732   -254575.12    427.48139    5757.6364    16117.588 
  416500   -254664.31    83.940798   -254580.37    410.23012    5522.2294    16117.588 
  416600   -254666.99    85.407995   -254581.58    417.40051    5617.6017    16117.588 
  416700   -254668.31    88.308278      -254580    431.57459    5811.0256    16117.588 
  416800      -254666    88.233785   -254577.77    431.21053     5805.661    16117.588 
  416900   -254664.04    87.593455   -254576.44    428.08115    5762.8929    16117.588 
  417000    -254666.2    85.347854   -254580.85    417.10659    5613.1992    16117.588 
  417100   -254666.07    84.038161   -254582.03    410.70594    5564.6869    16117.588 
  417200   -254665.93    85.499309   -254580.43    417.84677     5739.258    16117.588 
  417300   -254664.32    87.412272   -254576.91    427.19568    5752.0105    16117.588 
  417400   -254665.97    89.283801   -254576.69     436.3421    5964.0668    16117.588 
  417500   -254665.24    87.872165   -254577.37    429.44324    5781.4443    16117.588 
  417600   -254664.84    86.768725   -254578.07    424.05058    5759.3754    16117.588 
  417700   -254664.09    86.880124   -254577.21      424.595    5716.7052    16117.588 
  417800   -254663.48    86.078713    -254577.4     420.6784    5693.2012    16117.588 
  417900   -254665.71     86.24425   -254579.47     421.4874    5729.1284    16117.588 
  418000   -254667.77    83.916307   -254583.86    410.11043    5565.6069    16117.588 
  418100   -254667.42    86.100979   -254581.32    420.78722    5664.2831    16117.588 
  418200      -254665    86.425441   -254578.58     422.3729    5731.8703    16117.588 
  418300   -254665.24    87.461522   -254577.78    427.43638    5753.3505    16117.588 
  418400   -254664.21    86.582926   -254577.63    423.14255    5750.4729    16117.588 
  418500   -254661.68    82.543885   -254579.14    403.40321    5456.5708    16117.588 
  418600   -254663.42    84.957868   -254578.46    415.20067    5642.9915    16117.588 
  418700   -254664.65    89.591418   -254575.06    437.84547    5919.6898    16117.588 
  418800   -254661.18    86.081248    -254575.1    420.69079    5662.5269    16117.588 
  418900   -254663.11    84.655889   -254578.45    413.72486    5564.4059    16117.588 
  419000   -254664.19     83.34791   -254580.84    407.33259    5508.5007    16117.588 
  419100   -254666.15    86.752355   -254579.39    423.97058    5742.9643    16117.588 
  419200   -254664.89    87.603894   -254577.29    428.13217    5765.5097    16117.588 
  419300   -254663.92    87.148717   -254576.77    425.90765    5734.7166    16117.588 
  419400    -254662.9    83.589936   -254579.31     408.5154    5522.3498    16117.588 
  419500   -254664.28    82.043034   -254582.24    400.95549    5397.3453    16117.588 
  419600   -254666.97    86.647798   -254580.32    423.45959    5703.6155    16117.588 
  419700   -254665.38    88.547677   -254576.83    432.74456    5829.4727    16117.588 
  419800   -254663.46    86.549817   -254576.91    422.98075    5763.6516    16117.588 
  419900   -254664.01    88.629257   -254575.38    433.14325    5890.4287    16117.588 
  420000   -254663.28    87.303465   -254575.97    426.66393    5747.2398    16117.588 
  420100   -254665.45    84.856434   -254580.59    414.70495    5583.8946    16117.588 
  420200   -254668.51    86.468545   -254582.04    422.58356    5761.1496    16117.588 
  420300   -254666.47    85.742128   -254580.73    419.03346    5729.1167    16117.588 
  420400   -254665.82    88.177363   -254577.65    430.93479    5804.1415    16117.588 
  420500   -254663.65    88.396824   -254575.25    432.00732    5819.7882    16117.588 
  420600   -254664.87    88.361226   -254576.51    431.83335    5938.5499    16117.588 
  420700   -254664.22    86.431161   -254577.79    422.40086    5717.9264    16117.588 
  420800   -254664.31    85.258267   -254579.05    416.66877    5643.9469    16117.588 
  420900   -254667.84     89.21822   -254578.62     436.0216    5977.1579    16117.588 
  421000   -254666.09    85.958683   -254580.13     420.0918    5656.0922    16117.588 
  421100   -254665.85    84.118422   -254581.73    411.09819    5533.5648    16117.588 
  421200   -254665.59    85.990081    -254579.6    420.24524    5658.0331    16117.588 
  421300   -254664.76    88.639783   -254576.12     433.1947    5832.9909    16117.588 
  421400   -254665.24    88.333267   -254576.91    431.69671     5813.418    16117.588 
  421500   -254664.81    85.695641   -254579.12    418.80627    5767.4584    16117.588 
  421600   -254665.51    86.501137   -254579.01    422.74284    5731.5357    16117.588 
  421700   -254664.78     86.63181   -254578.15    423.38146    5701.0692    16117.588 
  421800   -254663.93     87.84156   -254576.09    429.29367    5781.4559    16117.588 
  421900   -254661.17    88.904359   -254572.27    434.48772    5886.8998    16117.588 
  422000   -254662.38    89.977729   -254572.41    439.73342    5922.5983    16117.588 
  422100    -254665.2    88.497642    -254576.7    432.50004    5825.2882    16117.588 
  422200   -254664.49    87.466507   -254577.02    427.46074    5914.1465    16117.588 
  422300   -254663.73    86.708033   -254577.02    423.75397    5741.8343    16117.588 
  422400    -254665.1    87.523377   -254577.58    427.73867    5781.6224    16117.588 
  422500   -254669.65    87.741115   -254581.91    428.80278      5773.66    16117.588 
  422600   -254666.05    82.916645   -254583.13    405.22494    5518.2399    16117.588 
  422700   -254665.49    85.022838   -254580.47    415.51819    5590.6405    16117.588 
  422800   -254666.54    88.047631   -254578.49    430.30077     5789.857    16117.588 
  422900   -254665.99    87.611531   -254578.38    428.16949    5765.4143    16117.588 
  423000   -254662.54    84.723645   -254577.82      414.056    5574.9917    16117.588 
  423100   -254662.19     88.56415   -254573.62    432.82507    5851.5594    16117.588 
  423200   -254664.84    91.686815   -254573.15    448.08596    6036.0902    16117.588 
  423300   -254662.61    86.876139   -254575.73    424.57553    5755.1589    16117.588 
  423400   -254664.91    88.014864   -254576.89    430.14063    5792.0322    16117.588 
  423500   -254664.67    86.730505   -254577.93     423.8638    5846.0801    16117.588 
  423600    -254665.6    87.448042   -254578.16     427.3705     5754.601    16117.588 
  423700   -254666.24    87.922546   -254578.32    429.68946    5783.1117    16117.588 
  423800   -254666.11    87.327884   -254578.79    426.78327    5816.8598    16117.588 
  423900   -254665.27    86.653752   -254578.62    423.48869     5700.062    16117.588 
  424000   -254663.97    86.986954   -254576.98     425.1171    5724.0074    16117.588 
  424100   -254660.89    86.533142   -254574.35    422.89925    5740.9544    16117.588 
  424200   -254662.72    88.240721   -254574.48    431.24443    5805.7753    16117.588 
  424300   -254664.74    85.348103   -254579.39    417.10781    5698.2667    16117.588 
  424400   -254666.72    85.537056   -254581.18    418.03125    5627.5662    16117.588 
  424500   -254666.13    86.264086   -254579.86    421.58434    5674.9798    16117.588 
  424600    -254666.5    89.700344    -254576.8     438.3778    5903.0531    16117.588 
  424700   -254663.22    87.301079   -254575.92    426.65227    5743.7817    16117.588 
  424800   -254662.72    86.333817   -254576.39    421.92513    5679.5185    16117.588 
  424900   -254662.85    85.932021   -254576.92     419.9615    5718.2412    16117.588 
  425000   -254661.33    85.100843   -254576.23    415.89941    5626.2527    16117.588 
  425100   -254665.03      87.9755   -254577.05    429.94825    5788.8044    16117.588 
  425200   -254665.58    83.962719   -254581.62    410.33725    5652.9497    16117.588 
  425300   -254668.72    86.418854    -254582.3    422.34071      5717.73    16117.588 
  425400   -254666.71    85.796324   -254580.92    419.29832    5673.9748    16117.588 
  425500   -254665.39    87.572603   -254577.81    427.97924    5763.0016    16117.588 
  425600   -254664.78    87.873898   -254576.91    429.45171    5782.6026    16117.588 
  425700   -254663.41    85.946047   -254577.46    420.03004  