LAMMPS (29 Sep 2021 - Update 2)
OMP_NUM_THREADS environment is not set. Defaulting to 1 thread. (src/comm.cpp:98)
  using 1 OpenMP thread(s) per MPI task
Reading data file ...
  orthogonal box = (0.0000000 0.0000000 0.0000000) to (25.260000 25.260000 25.260000)
  1 by 1 by 1 MPI processor grid
WARNING: Atom style in data file differs from currently defined atom style (src/read_data.cpp:516)
  reading atoms ...
  1584 atoms
  read_data CPU = 0.002 seconds
NequIP Coeff: type 1 is element O
NequIP Coeff: type 2 is element H
NequIP Coeff: type 3 is element Li
NequIP Coeff: type 4 is element Cl
Scanning dump file ...
Reading snapshot from dump file ...
  orthogonal box = (0.0000000 0.0000000 0.0000000) to (25.260000 25.260000 25.260000)
  1584 atoms before read
  1584 atoms in snapshot
  0 atoms purged
  1584 atoms replaced
  0 atoms trimmed
  0 atoms added
  1584 atoms after read
PPPM initialization ...
  using 12-bit tables for long-range coulomb (src/kspace.cpp:340)
  G vector (1/distance) = 0.22568151
  grid = 9 9 9
  stencil order = 5
  estimated absolute RMS force accuracy = 8.1621662e-06
  estimated relative force accuracy = 5.6683107e-07
  using double precision FFTW3
  3d grid and FFT values/proc = 2744 729
Neighbor list info ...
  update every 10 steps, delay 0 steps, check no
  max neighbors/atom: 2000, page size: 100000
  master list distance cutoff = 12
  ghost atom cutoff = 12
  binsize = 6, bins = 5 5 5
  3 neighbor lists, perpetual/occasional/extra = 3 0 0
  (1) pair nequip, perpetual
      attributes: full, newton off
      pair build: full/bin/atomonly
      stencil: full/bin/3d
      bin: standard
  (2) pair coul/long, perpetual, half/full from (1)
      attributes: half, newton off
      pair build: halffull/newtoff
      stencil: none
      bin: none
  (3) pair gauss/cut, perpetual, copy from (2)
      attributes: half, newton off
      pair build: copy
      stencil: none
      bin: none
Setting up Verlet run ...
  Unit style    : metal
  Current step  : 0
  Time step     : 0.0005
Per MPI rank memory allocation (min/avg/max) = 16.42 | 16.42 | 16.42 Mbytes
Step PotEng KinEng TotEng Temp Press Volume 
       0   -254646.91    81.847524   -254565.07          400       5404.5    16117.588 
     100   -254658.57    88.083591   -254570.48    430.47651    5792.0459    16117.588 
     200   -254663.98     86.90376   -254577.07    424.71051    5715.4917    16117.588 
     300   -254663.48    80.746169   -254582.73    394.61753    5305.8325    16117.588 
     400   -254669.33    82.908434   -254586.42    405.18481     5452.186    16117.588 
     500   -254669.95    80.845871   -254589.11    395.10478    5333.7588    16117.588 
     600   -254672.93    83.323761    -254589.6    407.21457    5506.8044    16117.588 
     700   -254672.06    81.506673   -254590.55    398.33422    5358.0032    16117.588 
     800   -254671.88    82.616664   -254589.27    403.75889    5433.1105    16117.588 
     900   -254670.35    82.581318   -254587.77    403.58615    5523.9619    16117.588 
    1000   -254670.59    82.027327   -254588.56    400.87872     5493.372    16117.588 
    1100   -254673.82    80.983252   -254592.84    395.77618    5356.7922    16117.588 
    1200   -254674.97    81.754529   -254593.22    399.54552    5375.0006    16117.588 
    1300   -254673.59    81.916665   -254591.68     400.3379    5385.9607    16117.588 
    1400   -254672.04    83.785074   -254588.25    409.46907    5602.5527    16117.588 
    1500   -254671.38    84.042547   -254587.34    410.72738    5526.3606    16117.588 
    1600   -254670.06    81.541579   -254588.52     398.5048    5360.5543    16117.588 
    1700   -254671.87    82.288208   -254589.58    402.15368    5410.6199    16117.588 
    1800   -254671.16    81.211425   -254589.95     396.8913    5338.2063    16117.588 
    1900    -254671.5     79.06939   -254592.43    386.42288    5195.3924    16117.588 
    2000   -254673.19    80.433639   -254592.75    393.09015    5286.5446    16117.588 
    2100   -254671.65    81.788402   -254589.86    399.71106    5475.3737    16117.588 
    2200   -254671.15    84.054782    -254587.1    410.78717    5526.4156    16117.588 
    2300   -254672.52    85.005474   -254587.51    415.43333    5618.1822    16117.588 
    2400   -254673.05    82.493273   -254590.56    403.15587    5494.8954    16117.588 
    2500   -254673.72    83.315794   -254590.41    407.17564    5502.8037    16117.588 
    2600   -254671.21     82.46861   -254588.74    403.03534    5420.8822    16117.588 
    2700   -254671.04    84.049357   -254586.99    410.76066    5526.0102    16117.588 
    2800   -254672.34    84.008083   -254588.34    410.55895    5518.8907    16117.588 
    2900   -254671.66    79.012754   -254592.65     386.1461    5192.2223    16117.588 
    3000   -254670.81    78.912731    -254591.9    385.65727     5212.652    16117.588 
    3100   -254671.66    83.203588   -254588.45    406.62727    5494.3534    16117.588 
    3200   -254673.02    84.494751   -254588.52    412.93736    5553.5088    16117.588 
    3300   -254671.75    81.172554   -254590.58    396.70133    5432.0639    16117.588 
    3400   -254672.81    81.747961   -254591.07    399.51342    5373.9963    16117.588 
    3500   -254670.79    79.559073   -254591.23    388.81603    5227.4153    16117.588 
    3600   -254673.04    81.295699   -254591.74    397.30316    5343.3507    16117.588 
    3700   -254674.94     79.50961   -254595.43    388.57429    5225.5067    16117.588 
    3800   -254677.05    80.976786   -254596.08    395.74459     5322.774    16117.588 
    3900    -254674.1    79.384151   -254594.71    387.96116    5249.8349    16117.588 
    4000      -254673    81.492286    -254591.5    398.26391    5357.1488    16117.588 
    4100   -254673.11    83.381215   -254589.72    407.49536    5482.2228    16117.588 
    4200   -254672.64    81.802423   -254590.84    399.77958    5416.5897    16117.588 
    4300   -254675.67    82.510717   -254593.16    403.24112    5426.1829    16117.588 
    4400   -254674.91    78.892595   -254596.01    385.55886    5185.0917    16117.588 
    4500   -254675.82    76.617921   -254599.21    374.44222    5033.2984    16117.588 
    4600   -254675.22    80.555813   -254594.66    393.68723    5291.7503    16117.588 
    4700   -254671.49    79.499722   -254591.99    388.52597    5225.5569    16117.588 
    4800   -254672.21     82.83042   -254589.38    404.80355     5487.333    16117.588 
    4900   -254669.74    81.672473   -254588.07     399.1445    5459.6704    16117.588 
    5000   -254671.16    82.895661   -254588.26    405.12239    5450.0003    16117.588 
    5100   -254670.24    81.384222   -254588.86    397.73578    5348.2463    16117.588 
    5200   -254672.17    81.058648   -254591.11    396.14466    5355.6725    16117.588 
    5300   -254672.67    80.221119   -254592.45    392.05154    5271.5254    16117.588 
    5400    -254674.1    82.383742   -254591.72    402.62057    5467.7778    16117.588 
    5500   -254669.85    82.377336   -254587.47    402.58926    5474.5355    16117.588 
    5600   -254669.18    82.745876   -254586.44    404.39037    5439.5671    16117.588 
    5700   -254670.13     82.26693   -254587.86     402.0497    5407.9147    16117.588 
    5800   -254673.42    84.165873   -254589.26    411.33009    5533.6396    16117.588 
    5900   -254672.02    80.669419   -254591.35    394.24244    5302.6604    16117.588 
    6000   -254677.11    80.875714   -254596.23    395.25063    5372.4433    16117.588 
    6100   -254677.42    82.106579   -254595.31    401.26604    5446.8991    16117.588 
    6200   -254674.98    82.552583   -254592.43    403.44572    5427.7937    16117.588 
    6300   -254672.79    82.540974   -254590.24    403.38899    5464.5047    16117.588 
    6400   -254671.01    81.152419   -254589.86    396.60293    5334.3273    16117.588 
    6500   -254671.64    83.153008   -254588.49    406.38008    5466.7094    16117.588 
    6600    -254666.1    81.774984   -254584.33    399.64549    5375.0278    16117.588 
    6700   -254669.36    84.598866   -254584.76    413.44618    5562.2731    16117.588 
    6800   -254671.41     82.94268   -254588.47    405.35218     5519.725    16117.588 
    6900   -254673.58    84.257537   -254589.33    411.77806    5540.6023    16117.588 
    7000   -254669.92    79.330103   -254590.59    387.69702    5319.7926    16117.588 
    7100   -254672.06    82.870751   -254589.19    405.00065    5526.1387    16117.588 
    7200   -254670.11    84.500572   -254585.61    412.96581    5633.2814    16117.588 
    7300   -254666.39    82.868516   -254583.52    404.98973    5447.6958    16117.588 
    7400   -254666.91    80.286481   -254586.62    392.37097    5277.8026    16117.588 
    7500   -254671.03    80.195622   -254590.84    391.92693    5322.4244    16117.588 
    7600   -254671.41    80.878387   -254590.54    395.26369    5318.0438    16117.588 
    7700   -254670.73    82.720005   -254588.01    404.26394    5438.7353    16117.588 
    7800   -254671.56    83.141111   -254588.42    406.32194    5467.8042    16117.588 
    7900    -254676.7    83.107836   -254593.59    406.15932    5532.0503    16117.588 
    8000    -254672.5    77.877917   -254594.62    380.59999    5119.0329    16117.588 
    8100   -254673.04    80.906927   -254592.14    395.40318    5371.0582    16117.588 
    8200   -254671.65    81.643633   -254590.01    399.00356    5369.0282    16117.588 
    8300   -254670.98    81.690361   -254589.29    399.23193     5372.378    16117.588 
    8400   -254671.59    83.030275   -254588.56    405.78027    5502.7474    16117.588 
    8500   -254673.25    84.171031   -254589.08    411.35529    5537.0224    16117.588 
    8600   -254672.31     79.39412   -254592.92    388.00988    5221.2162    16117.588 
    8700   -254675.03    82.663753   -254592.36    403.98902    5548.5709    16117.588 
    8800   -254672.96    83.244019   -254589.72    406.82486    5506.5891    16117.588 
    8900    -254672.6    83.985259   -254588.62     410.4474    5552.0667    16117.588 
    9000   -254672.42     81.66547   -254590.76    399.11028     5369.276    16117.588 
    9100   -254674.81    80.364226   -254594.45    392.75092    5284.0798    16117.588 
    9200   -254673.51    80.596347   -254592.92    393.88533    5299.4545    16117.588 
    9300   -254672.96    82.550399   -254590.41    403.43505    5427.9906    16117.588 
    9400   -254673.28    83.044161   -254590.24    405.84813    5461.4786    16117.588 
    9500   -254672.36    78.902818   -254593.45    385.60882     5187.761    16117.588 
    9600   -254675.79     79.75038   -254596.04    389.75097    5269.1884    16117.588 
    9700   -254676.21    80.787399   -254595.42    394.81902    5337.8046    16117.588 
    9800   -254675.92    82.533343   -254593.38    403.35169    5428.2607    16117.588 
    9900      -254674     81.51267   -254592.49    398.36352    5389.1558    16117.588 
   10000   -254673.16    82.911456   -254590.25    405.19958    5451.5282    16117.588 
   10100   -254671.42    82.698479   -254588.72    404.15873    5438.2232    16117.588 
   10200   -254673.04    83.293509   -254589.75    407.06673     5478.465    16117.588 
   10300   -254673.21    79.121447   -254594.08    386.67729    5202.3135    16117.588 
   10400   -254672.78    79.753139   -254593.02    389.76446    5243.4513    16117.588 
   10500   -254672.19    81.580801   -254590.61    398.69649    5364.5119    16117.588 
   10600   -254672.85    84.179856   -254588.67    411.39843    5537.0003    16117.588 
   10700    -254672.5    82.163581   -254590.33    401.54462     5403.565    16117.588 
   10800   -254675.02    82.536429   -254592.48    403.36677      5455.98    16117.588 
   10900   -254674.64    81.971883   -254592.67    400.60776    5390.9778    16117.588 
   11000   -254676.84    84.039732    -254592.8    410.71362    5575.7238    16117.588 
   11100   -254676.97    82.788489   -254594.18    404.59862    5523.2611    16117.588 
   11200   -254673.19    81.329536   -254591.86    397.46852      5348.31    16117.588 
   11300   -254672.77    84.371641    -254588.4    412.33571     5549.184    16117.588 
   11400   -254674.73    84.363502   -254590.37    412.29593    5546.4791    16117.588 
   11500   -254672.03    79.642182   -254592.39     389.2222     5235.407    16117.588 
   11600   -254674.29    82.188916    -254592.1    401.66843    5486.1196    16117.588 
   11700   -254675.56    83.446872   -254592.11    407.81623    5511.1257    16117.588 
   11800   -254673.11    84.051768   -254589.06    410.77244    5551.2722    16117.588 
   11900   -254671.91    85.320769   -254586.59    416.97422    5649.9091    16117.588 
   12000   -254671.17    83.532062   -254587.64    408.23257    5492.3814    16117.588 
   12100   -254672.72    81.584246   -254591.13    398.71332    5396.2863    16117.588 
   12200   -254672.23     79.84136   -254592.39     390.1956    5248.6507    16117.588 
   12300   -254673.09    81.393328    -254591.7    397.78028    5351.4045    16117.588 
   12400    -254673.4     82.91274   -254590.49    405.20586     5478.333    16117.588 
   12500   -254672.09    81.780859    -254590.3     399.6742    5437.0066    16117.588 
   12600   -254673.28    83.599814   -254589.68    408.56368    5498.7164    16117.588 
   12700   -254671.82    82.172436   -254589.65    401.58789    5404.9759    16117.588 
   12800   -254669.99    81.752261   -254588.24    399.53444     5376.911    16117.588 
   12900   -254667.72    83.641799   -254584.08    408.76887    5501.4882    16117.588 
   13000   -254668.57    84.369819    -254584.2     412.3268    5575.0654    16117.588 
   13100   -254670.46    83.826471   -254586.63    409.67138    5513.3396    16117.588 
   13200   -254671.35    82.517579   -254588.83    403.27465     5425.933    16117.588 
   13300   -254668.72    79.438446   -254589.29    388.22651    5252.6786    16117.588 
   13400   -254670.92    82.479524   -254588.44    403.08867    5424.0305    16117.588 
   13500   -254670.03    85.279627   -254584.75    416.77316     5716.155    16117.588 
   13600   -254669.45    85.518179   -254583.93    417.93899    5646.2832    16117.588 
   13700   -254670.57     82.24451   -254588.33    401.94012    5461.7493    16117.588 
   13800   -254670.36    79.842151   -254590.52    390.19947     5276.773    16117.588 
   13900   -254671.54    80.559659   -254590.98    393.70603    5342.7359    16117.588 
   14000   -254671.01    82.160825   -254588.85    401.53114    5402.7916    16117.588 
   14100   -254669.59    83.300382   -254586.28    407.10032    5503.1391    16117.588 
   14200   -254669.92    83.310688   -254586.61    407.15068    5512.0499    16117.588 
   14300   -254671.94    80.447649   -254591.49    393.15862    5289.9053    16117.588 
   14400   -254675.27    83.917641   -254591.35    410.11694    5655.6636    16117.588 
   14500   -254671.08    80.055183   -254591.03    391.24059    5303.9252    16117.588 
   14600   -254670.59    81.605313   -254588.98    398.81628    5366.8667    16117.588 
   14700   -254670.99    85.610126   -254585.38    418.38835    5631.8766    16117.588 
   14800   -254670.11    82.987318   -254587.13    405.57033    5502.0043    16117.588 
   14900   -254671.91    83.104558    -254588.8     406.1433    5467.8656    16117.588 
   15000   -254670.28    81.002083   -254589.28    395.86822    5356.4014    16117.588 
   15100   -254671.92    83.236686   -254588.69    406.78902    5476.2093    16117.588 
   15200   -254673.03    82.604989   -254590.43    403.70183     5434.604    16117.588 
   15300   -254674.82    80.683722   -254594.14    394.31234    5307.8009    16117.588 
   15400   -254673.99    78.507658   -254595.48    383.67762    5162.5925    16117.588 
   15500   -254671.86    79.369736   -254592.49    387.89071    5333.1522    16117.588 
   15600   -254673.67    82.595895   -254591.07    403.65739    5434.0511    16117.588 
   15700   -254671.66    82.269396   -254589.39    402.06175    5503.9366    16117.588 
   15800   -254671.72     83.11434   -254588.61    406.19111    5468.7401    16117.588 
   15900   -254669.45    81.184767   -254588.27    396.76102    5339.8856    16117.588 
   16000   -254668.49    82.315976   -254586.17    402.28939     5415.519    16117.588 
   16100   -254669.26    85.743991   -254583.51    419.04257    5673.8144    16117.588 
   16200   -254666.74    81.610155   -254585.13    398.83995     5392.581    16117.588 
   16300   -254670.51    80.752267   -254589.76    394.64733    5310.3483    16117.588 
   16400   -254673.15    82.549512    -254590.6    403.43071    5428.9353    16117.588 
   16500   -254672.34    82.268373   -254590.07    402.05675    5466.2983    16117.588 
   16600   -254672.11    82.020446   -254590.09    400.84509    5461.9167    16117.588 
   16700   -254672.07    81.441609   -254590.63    398.01624    5352.6752    16117.588 
   16800   -254673.75    81.456337   -254592.29    398.08822    5358.0425    16117.588 
   16900   -254673.74    81.160461   -254592.58    396.64223    5410.5568    16117.588 
   17000   -254671.19    80.054942   -254591.13    391.23941    5335.4341    16117.588 
   17100   -254671.81    83.666719   -254588.14    408.89066    5593.4239    16117.588 
   17200   -254670.01    83.101368   -254586.91    406.12771    5465.8995    16117.588 
   17300   -254671.63    85.606804   -254586.03    418.37211    5740.4089    16117.588 
   17400   -254673.02    82.098447   -254590.92    401.22629    5424.5167    16117.588 
   17500   -254675.76    81.636558   -254594.12    398.96898    5368.9365    16117.588 
   17600   -254675.79    81.101719   -254594.69    396.35515    5332.4753    16117.588 
   17700   -254675.74    83.099199   -254592.64     406.1171    5462.2987    16117.588 
   17800   -254671.37     82.06053   -254589.31    401.04099    5395.5178    16117.588 
   17900   -254673.88      84.6888   -254589.19    413.88571    5570.1092    16117.588 
   18000   -254673.13    82.911802   -254590.21    405.20127    5451.1176    16117.588 
   18100   -254674.11    82.539426   -254591.58    403.38142     5487.482    16117.588 
   18200   -254674.67    80.791746   -254593.87    394.84027    5310.8281    16117.588 
   18300   -254676.53    78.612985   -254597.91    384.19237    5167.7751    16117.588 
   18400   -254675.23    80.421978   -254594.81    393.03316    5375.8296    16117.588 
   18500   -254673.93    81.427807    -254592.5    397.94878    5391.5754    16117.588 
   18600   -254673.23    82.323232   -254590.91    402.32485    5413.6004    16117.588 
   18700   -254674.11    84.423113   -254589.69    412.58726    5636.9796    16117.588 
   18800   -254673.66    83.167541    -254590.5     406.4511    5494.3808    16117.588 
   18900   -254678.59    83.771651   -254594.82    409.40347    5509.2465    16117.588 
   19000   -254677.52    81.298205   -254596.22     397.3154     5347.203    16117.588 
   19100    -254673.9    79.857861   -254594.05    390.27625    5273.8087    16117.588 
   19200   -254675.09    84.188933    -254590.9    411.44279    5540.0107    16117.588 
   19300   -254672.97    81.833003   -254591.13    399.92904    5461.7645    16117.588 
   19400   -254675.59    82.184921   -254593.41    401.64891    5405.0557    16117.588 
   19500    -254675.3    80.573241   -254594.72    393.77241     5298.492    16117.588 
   19600   -254674.83    83.755841   -254591.08     409.3262    5571.6936    16117.588 
   19700   -254673.01    84.759302   -254588.25    414.23026    5575.3244    16117.588 
   19800   -254673.25    83.145122    -254590.1    406.34154    5469.1431    16117.588 
   19900   -254673.34     82.21811   -254591.12     401.8111    5477.3877    16117.588 
   20000   -254672.75    80.417364   -254592.34    393.01062    5383.6997    16117.588 
   20100    -254674.1    79.667447   -254594.43    389.34567    5286.4895    16117.588 
   20200   -254676.39    79.348476   -254597.04    387.78681     5210.631    16117.588 
   20300   -254676.21    79.551118   -254596.66    388.77715    5225.5076    16117.588 
   20400   -254672.96     80.70695   -254592.26    394.42586    5413.4445    16117.588 
   20500    -254671.7    81.168594   -254590.53    396.68198    5422.8464    16117.588 
   20600   -254672.76    83.338106   -254589.42    407.28468    5481.1235    16117.588 
   20700   -254672.94    81.227814   -254591.71     396.9714    5441.7101    16117.588 
   20800   -254675.04    80.560283   -254594.48    393.70908    5297.8106    16117.588 
   20900   -254672.77    79.583261   -254593.18    388.93424    5261.3543    16117.588 
   21000   -254676.23    83.689557   -254592.54    409.00227    5566.0717    16117.588 
   21100   -254674.99    82.508265   -254592.48    403.22913    5503.1793    16117.588 
   21200   -254673.12    81.214477    -254591.9    396.90621    5340.9776    16117.588 
   21300   -254671.77    80.386211   -254591.38    392.85836    5284.0647    16117.588 
   21400   -254671.77    84.889549   -254586.88    414.86679    5659.1222    16117.588 
   21500   -254670.31    84.234152   -254586.07    411.66378    5539.9342    16117.588 
   21600   -254670.25    81.490701   -254588.76    398.25616    5411.6544    16117.588 
   21700   -254672.63    81.623271   -254591.01    398.90405    5368.5996    16117.588 
   21800   -254673.52    82.203237   -254591.31    401.73842    5406.5286    16117.588 
   21900    -254672.8    81.457492   -254591.35    398.09386    5358.3609    16117.588 
   22000    -254669.9    79.657828   -254590.24    389.29866    5309.1243    16117.588 
   22100    -254671.9    85.280545   -254586.62    416.77764     5610.289    16117.588 
   22200   -254668.03    81.570119   -254586.46    398.64429    5463.4947    16117.588 
   22300   -254670.94    83.545435    -254587.4    408.29792    5528.2682    16117.588 
   22400   -254673.12    84.004111   -254589.12    410.53953    5526.9729    16117.588 
   22500   -254673.16    80.735336   -254592.43    394.56459    5310.6656    16117.588 
   22600   -254673.07    80.492054   -254592.58    393.37563    5293.1456    16117.588 
   22700   -254673.64    82.240269    -254591.4     401.9194    5408.6208    16117.588 
   22800   -254673.84    82.338699    -254591.5    402.40044    5415.9443    16117.588 
   22900   -254673.85    81.593207   -254592.26    398.75712    5366.0709    16117.588 
   23000   -254673.38    82.130217   -254591.25    401.38156     5402.493    16117.588 
   23100   -254673.81    85.334682   -254588.48    417.04222     5613.415    16117.588 
   23200   -254670.51     82.66448   -254587.85    403.99257    5435.9257    16117.588 
   23300   -254672.47    80.996565   -254591.48    395.84125    5388.7335    16117.588 
   23400   -254675.21    81.880687   -254593.33    400.16207    5386.4709    16117.588 
   23500   -254672.37    81.802124   -254590.57    399.77813    5380.9999    16117.588 
   23600    -254672.4     84.03475   -254588.37    410.68927     5527.752    16117.588 
   23700   -254669.88    82.014437   -254587.87    400.81573    5393.8169    16117.588 
   23800   -254671.73     83.57874   -254588.15    408.46069    5496.8827    16117.588 
   23900   -254671.35    79.897406   -254591.46    390.46951    5251.6328    16117.588 
   24000   -254674.47    81.313807   -254593.16    397.39165     5342.324    16117.588 
   24100   -254672.07    80.446904   -254591.62    393.15498    5338.7147    16117.588 
   24200   -254671.19     83.54372   -254587.65    408.28954    5494.5919    16117.588 
   24300   -254668.74    81.801297   -254586.94    399.77409    5378.0314    16117.588 
   24400   -254670.38    83.462387   -254586.92    407.89206    5490.1836    16117.588 
   24500   -254670.58    82.647731   -254587.93    403.91072    5460.6853    16117.588 
   24600   -254671.61    79.776111   -254591.84    389.87672     5241.305    16117.588 
   24700    -254673.2    80.038165   -254593.16    391.15742    5262.9022    16117.588 
   24800   -254672.83    79.612191   -254593.22    389.07562    5319.6728    16117.588 
   24900   -254673.23    85.071233   -254588.16    415.75471    5596.4621    16117.588 
   25000   -254669.92    82.433819   -254587.49     402.8653    5422.0658    16117.588 
   25100   -254671.26    83.254436   -254588.01    406.87577    5500.6097    16117.588 
   25200   -254676.15    85.635257   -254590.51    418.51117    5632.8435    16117.588 
   25300   -254676.96    82.979886   -254593.98    405.53401    5456.8446    16117.588 
   25400   -254674.35    80.496898   -254593.86    393.39931    5291.8913    16117.588 
   25500   -254673.27    80.474331    -254592.8    393.28902    5291.3967    16117.588 
   25600   -254673.31    84.379181   -254588.93    412.37255    5550.9553    16117.588 
   25700   -254671.55    82.604138   -254588.94    403.69768    5519.8853    16117.588 
   25800   -254669.66    79.758289    -254589.9    389.78963    5244.9528    16117.588 
   25900   -254672.91    83.634834   -254589.27    408.73483      5501.35    16117.588 
   26000   -254667.21    78.320046   -254588.89    382.76074    5198.6584    16117.588 
   26100   -254671.69     83.90287   -254587.79    410.04476    5518.7737    16117.588 
   26200   -254669.56    82.022399   -254587.54    400.85464    5429.5788    16117.588 
   26300   -254669.26    79.280178   -254589.98    387.45303    5210.9421    16117.588 
   26400   -254672.58    79.504345   -254593.07    388.54856    5227.1417    16117.588 
   26500   -254673.88    81.509091   -254592.37    398.34603    5357.8722    16117.588 
   26600   -254672.71    84.015837   -254588.69    410.59684    5595.3196    16117.588 
   26700   -254670.99    83.904051   -254587.09    410.05053    5519.2248    16117.588 
   26800   -254673.47    80.553043   -254592.92    393.67369    5297.4795    16117.588 
   26900   -254675.51    81.825438   -254593.69    399.89207    5381.6825    16117.588 
   27000   -254672.36    80.604664   -254591.76    393.92597    5298.8054    16117.588 
   27100    -254671.9    83.025679   -254588.87    405.75781    5460.7742    16117.588 
   27200   -254671.23    82.416687   -254588.82    402.78158    5558.1509    16117.588 
   27300    -254675.1    83.071449   -254592.03    405.98149    5465.4068    16117.588 
   27400   -254673.92    81.194821   -254592.73    396.81015      5339.76    16117.588 
   27500   -254674.51    82.347512   -254592.16    402.44351     5492.947    16117.588 
   27600   -254673.77    82.462971   -254591.31    403.00777    5503.8836    16117.588 
   27700   -254671.61    82.315557    -254589.3    402.28734    5414.0333    16117.588 
   27800   -254669.83    84.124869   -254585.71    411.12969     5535.439    16117.588 
   27900   -254670.54    82.621575   -254587.92     403.7829    5434.7909    16117.588 
   28000   -254671.38    81.228077   -254590.15    396.97268    5342.9063    16117.588 
   28100   -254671.39    80.602739   -254590.78    393.91657    5300.4926    16117.588 
   28200   -254671.16    82.124389   -254589.04    401.35308    5401.1554    16117.588 
   28300   -254668.74    82.535685    -254586.2    403.36314    5480.4382    16117.588 
   28400   -254669.61    83.381663   -254586.23    407.49755    5484.0701    16117.588 
   28500   -254670.77    82.832396   -254587.94    404.81321     5447.302    16117.588 
   28600   -254672.26     80.43408   -254591.83    393.09231    5288.4647    16117.588 
   28700    -254672.6    81.474114   -254591.13     398.1751    5391.7254    16117.588 
   28800   -254671.62    82.144493   -254589.48    401.45133     5475.696    16117.588 
   28900   -254670.08    81.180551    -254588.9    396.74042    5365.1126    16117.588 
   29000   -254670.09    82.453992   -254587.64    402.96389    5498.7507    16117.588 
   29100      -254670    82.325762   -254587.67    402.33722    5483.7081    16117.588 
   29200   -254671.84    81.900072   -254589.94    400.25681    5409.8876    16117.588 
   29300   -254673.73    81.123729   -254592.61    396.46272     5336.037    16117.588 
   29400   -254675.54    83.127576   -254592.41    406.25579    5468.3102    16117.588 
   29500   -254673.36    85.158806    -254588.2    416.18269    5665.8379    16117.588 
   29600   -254671.23    84.600107   -254586.63    413.45225    5566.2105    16117.588 
   29700   -254671.47    81.262375   -254590.21     397.1403    5497.9973    16117.588 
   29800   -254675.37     83.90893   -254591.46    410.07438    5519.0972    16117.588 
   29900   -254675.22     82.93152   -254592.28    405.29764     5499.041    16117.588 
   30000   -254671.33    78.686225   -254592.64     384.5503    5173.8323    16117.588 
   30100   -254670.43    79.435777   -254590.99    388.21346    5222.9054    16117.588 
   30200   -254672.66    85.230001   -254587.43    416.53063    5636.4375    16117.588 
   30300   -254672.07    83.842902   -254588.23    409.75169    5516.3273    16117.588 
   30400   -254673.69    82.450964   -254591.24     402.9491    5424.3084    16117.588 
   30500   -254672.28    80.811666   -254591.47    394.93762    5316.0483    16117.588 
   30600   -254671.55    81.572793   -254589.98    398.65735    5390.1775    16117.588 
   30700   -254671.48     82.80179   -254588.68    404.66363    5478.5457    16117.588 
   30800   -254668.65    79.987845   -254588.66     390.9115    5452.2964    16117.588 
   30900   -254671.84    80.546844   -254591.29     393.6434    5322.6846    16117.588 
   31000   -254671.55    76.931989   -254594.62    375.97711    5058.9993    16117.588 
   31100   -254671.32    79.272471   -254592.04    387.41537    5278.1507    16117.588 
   31200    -254669.2    79.236726   -254589.97    387.24068    5242.7745    16117.588 
   31300   -254668.81    81.030799   -254587.78    396.00855     5330.424    16117.588 
   31400    -254671.6    85.753226   -254585.85     419.0877    5642.2029    16117.588 
   31500   -254670.57     82.70119   -254587.87    404.17198    5440.5126    16117.588 
   31600   -254672.01    81.090208   -254590.92    396.29889    5332.1935    16117.588 
   31700   -254673.28    81.988081   -254591.29    400.68692    5499.4558    16117.588 
   31800   -254676.14    83.898807   -254592.25     410.0249     5589.988    16117.588 
   31900   -254675.04    82.253761   -254592.78    401.98534    5447.2144    16117.588 
   32000   -254676.63    81.321874   -254595.31    397.43108    5350.0514    16117.588 
   32100   -254673.08    78.876633    -254594.2    385.48085    5185.6414    16117.588 
   32200   -254672.85      82.8383   -254590.01    404.84206    5515.2598    16117.588 
   32300   -254671.86    83.239645   -254588.62    406.80348    5505.4522    16117.588 
   32400   -254672.63    84.535308   -254588.09    413.13557    5563.0049    16117.588 
   32500   -254673.15    81.788229   -254591.36    399.71022    5380.3467    16117.588 
   32600   -254672.02     78.08731   -254593.93    381.62332    5133.6987    16117.588 
   32700   -254673.65    80.955744   -254592.69    395.64175    5325.6814    16117.588 
   32800   -254675.55    84.249779    -254591.3    411.74015    5544.9505    16117.588 
   32900    -254671.5    80.856639   -254590.65    395.15741    5406.0286    16117.588 
   33000   -254672.05    84.024515   -254588.02    410.63925    5610.9127    16117.588 
   33100   -254667.74    80.953415   -254586.79    395.63037    5358.9774    16117.588 
   33200   -254669.09     82.16693   -254586.92    401.56098    5404.9251    16117.588 
   33300   -254671.96    81.698456   -254590.26    399.27148    5374.2051    16117.588 
   33400   -254673.69    80.211956   -254593.48    392.00676    5276.5259    16117.588 
   33500   -254671.77    79.638914   -254592.13    389.20622     5277.692    16117.588 
   33600   -254670.97    81.947338   -254589.03     400.4878    5392.6009    16117.588 
   33700   -254671.71    83.555159   -254588.15    408.34544    5535.5713    16117.588 
   33800   -254673.14    84.060101   -254589.08    410.81317    5566.9396    16117.588 
   33900   -254673.24    80.854928   -254592.38    395.14905    5321.3321    16117.588 
   34000   -254672.07    80.095623   -254591.97    391.43822    5271.0581    16117.588 
   34100   -254672.47    81.996662   -254590.47    400.72886    5422.1562    16117.588 
   34200   -254671.77    81.941495   -254589.82    400.45925    5424.2679    16117.588 
   34300   -254671.51     82.77139   -254588.74    404.51506    5491.5542    16117.588 
   34400   -254670.53    83.174774   -254587.36    406.48645    5505.4651    16117.588 
   34500   -254667.72    79.204857   -254588.52    387.08493    5210.1873    16117.588 
   34600   -254671.63    79.344973   -254592.29    387.76969    5220.4379    16117.588 
   34700    -254672.1    80.148731   -254591.96    391.69777    5301.3134    16117.588 
   34800   -254670.11    81.561015   -254588.55    398.59979    5365.9916    16117.588 
   34900   -254672.84    84.671676   -254588.17    413.80202    5608.2973    16117.588 
   35000   -254674.13    84.618473   -254589.51    413.54201    5617.2116    16117.588 
   35100   -254671.48    80.472084   -254591.01    393.27804    5319.6287    16117.588 
   35200   -254673.71    82.529133   -254591.18    403.33112    5474.8719    16117.588 
   35300   -254672.74    82.031016    -254590.7    400.89675    5396.7058    16117.588 
   35400   -254672.65    81.788718   -254590.86    399.71261    5381.5364    16117.588 
   35500   -254672.92    82.393066   -254590.53    402.66614    5422.7784    16117.588 
   35600   -254669.88    81.817273   -254588.06    399.85216    5407.6914    16117.588 
   35700   -254669.23    82.562701   -254586.67    403.49517    5434.5497    16117.588 
   35800   -254669.03    79.913409   -254589.12    390.54772     5316.722    16117.588 
   35900   -254672.91    81.156054   -254591.76    396.62069    5496.3016    16117.588 
   36000   -254673.59    80.867345   -254592.72    395.20973    5320.9904    16117.588 
   36100   -254675.77    80.868952   -254594.91    395.21759    5320.8357    16117.588 
   36200   -254676.96    79.315366   -254597.65      387.625    5218.5697    16117.588 
   36300   -254678.18     81.64026   -254596.54    398.98707    5371.7696    16117.588 
   36400   -254673.39    80.601235   -254592.78    393.90921    5369.9836    16117.588 
   36500   -254671.71     81.01651   -254590.69    395.93872    5375.7118    16117.588 
   36600   -254675.06    83.845026   -254591.22    409.76207    5519.0576    16117.588 
   36700   -254673.81    79.863073   -254593.95    390.30172    5288.4677    16117.588 
   36800   -254674.22    77.222298      -254597    377.39589    5079.1266    16117.588 
   36900   -254673.47    76.533092   -254596.93    374.02765    5033.3202    16117.588 
   37000   -254674.01    81.666671   -254592.34    399.11615    5372.9964    16117.588 
   37100   -254672.75    82.187779   -254590.57    401.66287    5408.7921    16117.588 
   37200   -254673.88    83.996389   -254589.88    410.50179    5527.4627    16117.588 
   37300   -254669.49    81.355596   -254588.13    397.59588    5457.2273    16117.588 
   37400   -254669.46    82.305222   -254587.16    402.23683    5509.7109    16117.588 
   37500    -254671.7    81.952339   -254589.75    400.51225    5394.1064    16117.588 
   37600   -254673.45    80.131127   -254593.32    391.61173    5272.8074    16117.588 
   37700    -254675.4    82.094227   -254593.31    401.20567    5426.4826    16117.588 
   37800   -254674.88    82.151273   -254592.73    401.48446    5448.1308    16117.588 
   37900   -254670.65    80.349176    -254590.3    392.67737    5286.7233    16117.588 
   38000   -254671.28    84.189848   -254587.09    411.44726    5542.0422    16117.588 
   38100   -254671.22    83.246537   -254587.98    406.83717    5599.5481    16117.588 
   38200    -254673.6    82.667201   -254590.93    404.00587    5442.2196    16117.588 
   38300   -254672.95    79.771911   -254593.18     389.8562    5319.0864    16117.588 
   38400   -254673.58    80.740981   -254592.84    394.59218    5313.9409    16117.588 
   38500   -254673.36    81.503564   -254591.86    398.31902    5363.0253    16117.588 
   38600   -254672.77    83.523689   -254589.24    408.19165    5497.9744    16117.588 
   38700   -254671.86    84.710002   -254587.15    413.98932    5575.7178    16117.588 
   38800   -254670.94    82.276825   -254588.66    402.09805    5410.1986    16117.588 
   38900   -254669.18    80.277679    -254588.9    392.32795    5281.1027    16117.588 
   39000   -254669.09    80.437367   -254588.65    393.10837     5382.721    16117.588 
   39100   -254670.06    82.991432   -254587.07    405.59044    5460.5673    16117.588 
   39200   -254670.19    83.574988   -254586.62    408.44235    5549.1578    16117.588 
   39300   -254672.79    80.931486   -254591.86     395.5232    5321.6341    16117.588 
   39400   -254671.74    78.743867   -254592.99      384.832    5279.5826    16117.588 
   39500   -254671.15    81.437549   -254589.71     397.9964    5422.6986    16117.588 
   39600   -254669.92    81.578991   -254588.34    398.68764    5368.2358    16117.588 
   39700   -254671.15     83.18216   -254587.97    406.52255    5473.1274    16117.588 
   39800   -254670.69    81.435146   -254589.26    397.98465    5394.6713    16117.588 
   39900   -254674.32    80.426799   -254593.89    393.05672    5292.4836    16117.588 
   40000   -254674.68    80.761161   -254593.92     394.6908    5312.9828    16117.588 
   40100   -254672.72    81.805494   -254590.92     399.7946    5381.7625    16117.588 
   40200   -254671.53    82.702295   -254588.83    404.17738    5493.1824    16117.588 
   40300   -254670.24     82.20956   -254588.03    401.76932    5441.5109    16117.588 
   40400   -254672.08    82.367592   -254589.72    402.54164    5418.4101    16117.588 
   40500   -254673.84    81.703693   -254592.13    399.29708    5402.9597    16117.588 
   40600   -254673.02    79.095822   -254593.93    386.55206    5202.1797    16117.588 
   40700   -254672.51    79.319114   -254593.19    387.64332    5242.0745    16117.588 
   40800   -254671.45    80.801888   -254590.64    394.88983    5315.5327    16117.588 
   40900   -254672.08    83.718102   -254588.36    409.14177    5508.0092    16117.588 
   41000    -254672.7    84.709082   -254587.99    413.98482     5574.754    16117.588 
   41100   -254671.74    81.005845   -254590.74     395.8866    5328.3209    16117.588 
   41200   -254672.51    79.544183   -254592.97    388.74326    5231.2221    16117.588 
   41300   -254671.28    80.063274   -254591.22    391.28013    5326.5908    16117.588 
   41400   -254671.28    84.162054   -254587.12    411.31142     5537.453    16117.588 
   41500   -254670.77    82.013345   -254588.76    400.81039    5457.8721    16117.588 
   41600   -254672.78    81.365242   -254591.41    397.64302     5387.611    16117.588 
   41700   -254674.33    81.941986   -254592.38    400.46165    5391.8922    16117.588 
   41800   -254672.95    82.210394   -254590.74    401.77339    5407.9787    16117.588 
   41900   -254672.97     86.18117   -254586.79    421.17912    5671.4996    16117.588 
   42000   -254670.63    84.206069   -254586.42    411.52653    5611.9194    16117.588 
   42100   -254672.84    83.618648   -254589.22    408.65573    5500.9437    16117.588 
   42200    -254674.1    83.958846   -254590.14    410.31832    5549.7193    16117.588 
   42300   -254672.19    81.234932   -254590.95    397.00618    5381.3904    16117.588 
   42400   -254675.48    84.422822   -254591.05    412.58583    5555.8293    16117.588 
   42500   -254675.85     80.97191   -254594.88    395.72076    5326.9298    16117.588 
   42600   -254676.01    80.132742   -254595.88    391.61963    5321.4477    16117.588 
   42700      -254676    82.771564   -254593.22    404.51591    5445.5036    16117.588 
   42800   -254673.81    81.927764   -254591.89    400.39214    5388.5578    16117.588 
   42900   -254674.13    82.272778   -254591.86    402.07827    5412.0564    16117.588 
   43000   -254670.45    78.771345   -254591.68    384.96629     5244.229    16117.588 
   43100   -254673.22    85.268991   -254587.95    416.72118    5643.1361    16117.588 
   43200    -254670.9    84.146877   -254586.75    411.23725    5536.5458    16117.588 
   43300   -254670.49    81.211684   -254589.28    396.89256     5377.909    16117.588 
   43400    -254673.2    82.454349   -254590.75    402.96564    5533.9824    16117.588 
   43500   -254672.44    80.963205   -254591.48    395.67821    5397.1187    16117.588 
   43600   -254672.51    80.713445    -254591.8     394.4576    5340.1921    16117.588 
   43700   -254669.85    80.134289   -254589.72    391.62719    5306.5816    16117.588 
   43800   -254668.29    82.037715   -254586.25    400.92949    5454.6591    16117.588 
   43900    -254669.2     81.94705   -254587.26     400.4864    5421.9123    16117.588 
   44000   -254671.69    81.009631   -254590.68     395.9051    5326.2161    16117.588 
   44100    -254670.9     79.77037   -254591.13    389.84867    5313.1971    16117.588 
   44200    -254672.8     82.33728   -254590.46     402.3935    5418.1775    16117.588 
   44300   -254672.06    81.745876   -254590.32    399.50324    5422.8572    16117.588 
   44400   -254673.61    83.543503   -254590.06    408.28848    5496.5355    16117.588 
   44500   -254670.49    80.973957   -254589.52    395.73076    5327.9876    16117.588 
   44600   -254671.13    82.469861   -254588.66    403.04145      5478.11    16117.588 
   44700   -254671.64    82.450503   -254589.19    402.94684    5490.1168    16117.588 
   44800   -254672.91    82.393473   -254590.51    402.66813    5422.7914    16117.588 
   44900   -254673.36    80.789839   -254592.57    394.83095    5316.9754    16117.588 
   45000   -254673.02    79.737333   -254593.28    389.68721    5344.0501    16117.588 
   45100   -254672.55    83.648573    -254588.9    408.80197    5556.3912    16117.588 
   45200   -254671.05     82.18787   -254588.86    401.66332    5485.2281    16117.588 
   45300   -254672.77    82.211514   -254590.56    401.77887    5411.0328    16117.588 
   45400   -254671.51    80.115775    -254591.4    391.53671    5302.8886    16117.588 
   45500   -254670.77    82.907019   -254587.86     405.1779    5490.6496    16117.588 
   45600   -254669.05    84.442169   -254584.61    412.68039    5558.7377    16117.588 
   45700   -254670.01    83.467935   -254586.55    407.91917    5536.8433    16117.588 
   45800   -254671.99    81.745713   -254590.24    399.50244    5407.6719    16117.588 
   45900   -254673.64    82.324714   -254591.31    402.33209    5418.3568    16117.588 
   46000   -254670.92    80.370501   -254590.55    392.78159    5358.1381    16117.588 
   46100   -254669.92    81.693311   -254588.23    399.24634    5467.7703    16117.588 
   46200   -254669.03     82.61619   -254586.41    403.75657    5531.0861    16117.588 
   46300   -254670.65    83.774252   -254586.88    409.41618    5513.4367    16117.588 
   46400   -254672.77    81.735191   -254591.04    399.45102    5420.6654    16117.588 
   46500   -254670.92    79.970379   -254590.95    390.82614    5331.9067    16117.588 
   46600   -254670.12    81.792029   -254588.33    399.72879     5381.151    16117.588 
   46700   -254671.34     83.05028   -254588.29    405.87804     5501.281    16117.588 
   46800   -254672.04    82.148767   -254589.89    401.47222    5456.3597    16117.588 
   46900   -254673.65    82.461313   -254591.18    402.99967    5544.7954    16117.588 
   47000   -254676.91    83.388171   -254593.53    407.52935     5489.311    16117.588 
   47100   -254673.86    78.855566      -254595    385.37789    5185.0122    16117.588 
   47200   -254677.55    82.270438   -254595.28    402.06684    5498.7823    16117.588 
   47300   -254677.29    79.361936   -254597.93    387.85259    5221.5038    16117.588 
   47400   -254677.84    80.881298   -254596.95    395.27792     5322.325    16117.588 
   47500   -254674.76    81.489198   -254593.27    398.24881    5362.6589    16117.588 
   47600   -254672.85    81.378702   -254591.47     397.7088    5355.1822    16117.588 
   47700   -254673.86    83.265473   -254590.59    406.92971    5516.1403    16117.588 
   47800   -254673.36    84.044955   -254589.31    410.73914    5532.0798    16117.588 
   47900   -254671.42    81.274736   -254590.14    397.20071    5348.2653    16117.588 
   48000   -254674.06    81.822571   -254592.24    399.87805    5420.2126    16117.588 
   48100   -254674.18    80.776111    -254593.4    394.76386    5314.2676    16117.588 
   48200   -254673.33    79.958253   -254593.37    390.76687    5260.3679    16117.588 
   48300   -254671.58    81.182968    -254590.4    396.75223     5341.088    16117.588 
   48400   -254672.82    84.431057   -254588.39    412.62608    5555.3675    16117.588 
   48500   -254672.51    81.936035   -254590.57    400.43257    5416.3958    16117.588 
   48600   -254674.29    80.659879   -254593.63    394.19582    5351.9498    16117.588 
   48700   -254676.17    81.953429   -254594.21    400.51757    5393.5841    16117.588 
   48800   -254673.13     79.62635   -254593.51    389.14482    5238.5353    16117.588 
   48900   -254673.95    81.618356   -254592.33    398.88003    5370.2717    16117.588 
   49000   -254672.29    81.659993   -254590.63    399.08351    5453.4127    16117.588 
   49100   -254671.99    82.123069   -254589.87    401.34662    5438.7351    16117.588 
   49200    -254674.5    87.415912   -254587.09    427.21347    5754.4113    16117.588 
   49300   -254669.73    83.421751   -254586.31    407.69346    5489.5546    16117.588 
   49400   -254673.38    82.977989    -254590.4    405.52474    5498.0922    16117.588 
   49500   -254672.29    79.567273   -254592.73     388.8561    5281.8778    16117.588 
   49600    -254673.2    81.104119    -254592.1    396.36688    5335.2013    16117.588 
   49700   -254673.73    83.311648   -254590.42    407.15537    5670.2884    16117.588 
   49800   -254671.02    82.615627   -254588.41    403.75382    5492.6971    16117.588 
   49900   -254670.31    84.767384   -254585.54    414.26975    5609.6892    16117.588 
   50000   -254668.36    82.152662   -254586.21    401.49125    5404.0517    16117.588 
   50100    -254670.9    80.066923   -254590.83    391.29796    5266.6247    16117.588 
   50200   -254671.25     80.34752   -254590.91    392.66928    5285.5527    16117.588 
   50300   -254671.95     83.84382   -254588.11    409.75617    5549.4521    16117.588 
   50400   -254668.13    80.899786   -254587.23    395.36827     5322.812    16117.588 
   50500   -254670.19    82.442684   -254587.75    402.90863    5424.7705    16117.588 
   50600    -254672.2    81.957064   -254590.25    400.53534    5392.2857    16117.588 
   50700   -254672.51    79.619909   -254592.89    389.11334    5267.3802    16117.588 
   50800    -254676.2     82.05517   -254594.15    401.01479     5397.352    16117.588 
   50900   -254676.71    79.771293   -254596.94    389.85318    5302.2598    16117.588 
   51000   -254673.77    78.799786   -254594.97    385.10529    5182.2218    16117.588 
   51100   -254671.38    81.357157   -254590.02    397.60351    5424.8825    16117.588 
   51200   -254674.89    86.452445   -254588.43    422.50488    5686.9583    16117.588 
   51300   -254671.44    81.217146   -254590.22    396.91926    5341.4584    16117.588 
   51400   -254673.19    80.028351   -254593.17    391.10946    5263.3397    16117.588 
   51500   -254677.46    82.050781    -254595.4    400.99334    5400.1404    16117.588 
   51600   -254676.13      80.3833   -254595.75    392.84414    5288.6029    16117.588 
   51700   -254672.27    82.182434   -254590.08    401.63675     5407.574    16117.588 
   51800      -254671    82.266854   -254588.73    402.04933    5413.2741    16117.588 
   51900   -254672.29    83.023228   -254589.27    405.74583    5515.5702    16117.588 
   52000   -254671.84    80.443285    -254591.4     393.1373    5291.1356    16117.588 
   52100    -254672.8    80.904894    -254591.9    395.39324    5322.4866    16117.588 
   52200   -254668.99    80.226842   -254588.76    392.07951     5310.557    16117.588 
   52300   -254669.75    83.775278   -254585.98     409.4212    5511.6554    16117.588 
   52400    -254667.8    81.260801   -254586.54    397.13261    5482.2301    16117.588 
   52500   -254670.43    80.441059   -254589.99    393.12641    5291.1351    16117.588 
   52600   -254672.16    80.871059   -254591.29    395.22788    5374.9596    16117.588 
   52700    -254672.9     80.75508   -254592.15    394.66108    5377.7546    16117.588 
   52800   -254672.55     80.80577   -254591.74    394.90881    5316.2353    16117.588 
   52900   -254670.13    82.866376   -254587.26    404.97927    5452.4116    16117.588 
   53000   -254669.61    83.931921   -254585.67    410.18674    5523.0881    16117.588 
   53100   -254670.58    83.053872   -254587.53    405.89559    5466.0173    16117.588 
   53200   -254672.75    83.240631    -254589.5    406.80831    5477.9959    16117.588 
   53300   -254673.37    82.146403   -254591.23    401.46066    5441.1825    16117.588 
   53400   -254672.87    81.413789   -254591.45    397.88028    5417.6303    16117.588 
   53500   -254673.15    82.702933   -254590.45     404.1805     5479.443    16117.588 
   53600   -254673.61    83.693086   -254589.91    409.01951    5507.8471    16117.588 
   53700   -254671.54    83.107798   -254588.43    406.15913    5596.7848    16117.588 
   53800   -254669.92    81.573137   -254588.34    398.65904    5415.5266    16117.588 
   53900   -254671.04    81.615844   -254589.42    398.86775    5370.6009    16117.588 
   54000   -254672.88    82.282895    -254590.6    402.12772    5414.7393    16117.588 
   54100   -254671.95    79.658344   -254592.29    389.30118      5241.62    16117.588 
   54200   -254675.08    82.891549   -254592.19    405.10229    5456.4761    16117.588 
   54300   -254674.34    84.361391   -254589.98    412.28561    5554.1808    16117.588 
   54400   -254673.65    86.319203   -254587.33     421.8537    5682.5283    16117.588 
   54500   -254670.84    81.139058    -254589.7    396.53763    5339.4748    16117.588 
   54600   -254672.09    79.945462   -254592.15    390.70437    5341.3769    16117.588 
   54700   -254671.63    80.074469   -254591.56    391.33484    5268.3161    16117.588 
   54800   -254673.52    82.261349   -254591.26    402.02242    5467.0401    16117.588 
   54900    -254673.8    80.986577   -254592.81    395.79244    5327.8877    16117.588 
   55000   -254674.76    81.529669   -254593.23     398.4466    5416.1304    16117.588 
   55100   -254673.69      82.4973   -254591.19    403.17555    5428.4302    16117.588 
   55200   -254670.99    84.449609   -254586.54    412.71675    5557.7646    16117.588 
   55300   -254673.04    83.920537   -254589.12     410.1311    5579.7653    16117.588 
   55400   -254673.82    81.367919   -254592.46     397.6561    5353.3755    16117.588 
   55500   -254675.61    82.350908   -254593.26    402.46011    5419.7251    16117.588 
   55600   -254674.22    81.298596   -254592.93    397.31731    5422.6202    16117.588 
   55700    -254672.4    80.278986   -254592.12    392.33434    5280.0425    16117.588 
   55800   -254673.69    82.548267   -254591.14    403.42463     5431.835    16117.588 
   55900   -254673.98     82.08415    -254591.9    401.15642    5401.4497    16117.588 
   56000   -254672.39    80.737799   -254591.65    394.57662    5311.0507    16117.588 
   56100   -254672.21    83.277632   -254588.93    406.98913    5479.1132    16117.588 
   56200   -254674.58    86.428111   -254588.16    422.38595    5717.1694    16117.588 
   56300   -254673.23    81.142015   -254592.08    396.55208    5379.8209    16117.588 
   56400    -254674.3     80.45256   -254593.85    393.18262     5344.308    16117.588 
   56500   -254674.17    79.747398   -254594.43     389.7364    5306.9983    16117.588 
   56600   -254674.31    81.118537   -254593.19    396.43734    5336.0238    16117.588 
   56700   -254672.69    83.587424    -254589.1    408.50313     5500.219    16117.588 
   56800   -254673.44    84.820266   -254588.62     414.5282    5582.7365    16117.588 
   56900   -254673.99    83.423281   -254590.56    407.70094    5490.6817    16117.588 
   57000   -254672.92    81.388734   -254591.53    397.75783    5355.3971    16117.588 
   57100    -254674.4    82.860627   -254591.54    404.95117     5452.391    16117.588 
   57200   -254673.69    82.348569   -254591.34    402.44868    5497.5573    16117.588 
   57300   -254671.21    80.047881   -254591.16     391.2049    5265.7659    16117.588 
   57400   -254675.18    82.459445   -254592.73    402.99054    5453.6473    16117.588 
   57500   -254676.24    81.685851   -254594.55    399.20988    5374.5403    16117.588 
   57600   -254673.88    78.789817   -254595.09    385.05657     5181.757    16117.588 
   57700   -254673.27    82.493959   -254590.78    403.15922     5427.934    16117.588 
   57800   -254673.48    83.160819   -254590.32    406.41825    5535.2848    16117.588 
   57900   -254674.87    82.429899   -254592.44    402.84615     5452.362    16117.588 
   58000   -254674.51    80.412317   -254594.09    392.98595    5289.9259    16117.588 
   58100   -254675.93    82.333868   -254593.59    402.37683    5451.7356    16117.588 
   58200   -254672.92    84.425616    -254588.5    412.59949    5586.9004    16117.588 
   58300   -254669.98    82.774793   -254587.21    404.53169    5471.0412    16117.588 
   58400    -254671.2    81.621183   -254589.58    398.89384    5370.4566    16117.588 
   58500   -254671.67    80.066906   -254591.61    391.29788    5311.9624    16117.588 
   58600   -254676.32    83.161563   -254593.16    406.42189    5586.1163    16117.588 
   58700   -254673.95    80.821281   -254593.13    394.98461    5317.0814    16117.588 
   58800   -254674.67    83.053463   -254591.62    405.89359     5464.757    16117.588 
   58900   -254675.18    84.516199   -254590.67    413.04218    5561.8921    16117.588 
   59000   -254675.32    81.828779   -254593.49    399.90839    5383.4316    16117.588 
   59100   -254672.87    79.486867   -254593.38    388.46315    5343.2359    16117.588 
   59200   -254671.85    82.338087   -254589.51    402.39745    5416.6674    16117.588 
   59300   -254673.18    84.185135   -254588.99    411.42422    5539.1099    16117.588 
   59400   -254673.72    82.725845   -254590.99    404.29248    5442.5143    16117.588 
   59500   -254675.75    83.333869   -254592.42    407.26397    5520.5254    16117.588 
   59600   -254675.46    81.861816    -254593.6    400.06985    5413.0247    16117.588 
   59700   -254675.31    80.154389   -254595.16    391.72542    5314.1826    16117.588 
   59800   -254676.88    81.106046   -254595.77     396.3763    5370.0294    16117.588 
   59900   -254676.26    83.656233    -254592.6    408.83941    5562.6558    16117.588 
   60000   -254672.44    82.297868   -254590.15    402.20089    5413.9602    16117.588 
   60100    -254671.8    83.539527   -254588.26    408.26905    5581.3613    16117.588 
   60200   -254671.86    82.576332   -254589.28    403.56178    5588.4939    16117.588 
   60300   -254673.91    80.174643   -254593.73    391.82441    5274.0475    16117.588 
   60400   -254673.45    79.243995   -254594.21     387.2762    5212.9698    16117.588 
   60500   -254675.49    83.104131   -254592.38    406.14121    5495.6379    16117.588 
   60600   -254676.15    84.299404   -254591.85    411.98267    5546.9522    16117.588 
   60700   -254675.25    81.616853   -254593.63    398.87268    5454.9632    16117.588 
   60800   -254678.61    80.358964   -254598.25     392.7252     5310.006    16117.588 
   60900   -254678.31    81.002885   -254597.31    395.87213    5328.5415    16117.588 
   61000   -254675.53    80.825844    -254594.7    395.00691    5341.0512    16117.588 
   61100   -254677.18    83.690096   -254593.49     409.0049    5530.3735    16117.588 
   61200   -254673.52    80.684178   -254592.83    394.31457    5402.1992    16117.588 
   61300   -254672.77    81.807948   -254590.96    399.80659    5381.7829    16117.588 
   61400   -254673.66    85.622284   -254588.03    418.44777    5684.4994    16117.588 
   61500   -254670.76    81.827652   -254588.93    399.90288    5382.8077    16117.588 
   61600   -254674.72      80.6292   -254594.09    394.04588    5304.0942    16117.588 
   61700    -254675.2    80.917747   -254594.29    395.45606     5385.251    16117.588 
   61800   -254673.89    82.174573   -254591.71    401.59834    5435.3143    16117.588 
   61900   -254672.88    83.670956   -254589.21    408.91136    5528.1004    16117.588 
   62000   -254671.46    81.633773   -254589.83    398.95537    5370.3628    16117.588 
   62100    -254671.7    78.218013   -254593.48    382.26209    5165.1962    16117.588 
   62200   -254675.38    80.225775   -254595.15    392.07429    5276.7816    16117.588 
   62300   -254673.16    81.811448   -254591.35    399.82369    5380.4555    16117.588 
   62400    -254672.2     84.17978   -254588.02    411.39805    5537.7982    16117.588 
   62500   -254674.87    84.305272   -254590.56    412.01135    5546.3553    16117.588 
   62600   -254674.48    81.048539   -254593.43    396.09525    5330.7131    16117.588 
   62700   -254677.14    83.267313   -254593.87     406.9387    5477.7212    16117.588 
   62800   -254674.45    81.649556    -254592.8     399.0325    5370.2312    16117.588 
   62900   -254671.78    81.238919   -254590.55    397.02567    5343.2989    16117.588 
   63000    -254669.1    81.284243   -254587.82    397.24717    5381.0596    16117.588 
   63100   -254672.24    83.044238    -254589.2     405.8485    5581.9828    16117.588 
   63200   -254675.19    82.359693   -254592.83    402.50304     5481.279    16117.588 
   63300   -254675.29    82.231909   -254593.06    401.87854    5410.4549    16117.588 
   63400   -254671.91    79.650171   -254592.26    389.26124    5238.6566    16117.588 
   63500   -254669.04     80.32255   -254588.72    392.54725     5423.345    16117.588 
   63600   -254671.06    84.631809   -254586.42    413.60718    5568.5896    16117.588 
   63700   -254674.17    85.503352   -254588.66    417.86653    5654.6139    16117.588 
   63800   -254673.12    81.800443   -254591.32    399.76991    5415.5693    16117.588 
   63900   -254673.56    81.404614   -254592.15    397.83544     5385.738    16117.588 
   64000   -254673.58    81.449657   -254592.13    398.05557    5356.9452    16117.588 
   64100   -254670.58    80.520966   -254590.06    393.51693    5294.3296    16117.588 
   64200    -254668.6    82.150668   -254586.45     401.4815    5558.0768    16117.588 
   64300   -254668.04    83.976772   -254584.06    410.40593    5522.6666    16117.588 
   64400   -254668.09    82.549524   -254585.54    403.43077    5516.4733    16117.588 
   64500   -254671.74    82.146751   -254589.59    401.46236    5401.1539    16117.588 
   64600   -254671.83    81.267668   -254590.56    397.16616     5372.509    16117.588 
   64700   -254671.98    81.474843   -254590.51    398.17866    5357.0263    16117.588 
   64800   -254673.49     82.89009    -254590.6    405.09516    5451.9695    16117.588 
   64900   -254672.53    82.439861   -254590.09    402.89483    5467.1936    16117.588 
   65000   -254671.59    85.320773   -254586.27    416.97424    5613.7721    16117.588 
   65100    -254669.6    84.344119   -254585.26     412.2012    5590.3087    16117.588 
   65200   -254672.05    82.118696   -254589.94    401.32526    5497.0174    16117.588 
   65300   -254673.61    82.037152   -254591.57    400.92674    5389.8962    16117.588 
   65400   -254673.74    81.910867   -254591.83    400.30957    5387.9455    16117.588 
   65500   -254672.11    81.598264   -254590.51    398.78183    5481.7445    16117.588 
   65600   -254670.82    83.811372   -254587.01    409.59759    5583.0274    16117.588 
   65700   -254669.07    83.740863   -254585.33    409.25301    5509.5634    16117.588 
   65800   -254668.61    82.679824   -254585.93    404.06757    5438.8524    16117.588 
   65900    -254671.5    80.265484   -254591.23    392.26835    5278.6636    16117.588 
   66000   -254672.08    80.906404   -254591.18    395.40062     5386.137    16117.588 
   66100      -254670    81.022138   -254588.98    395.96623    5327.5357    16117.588 
   66200   -254671.53    83.851238   -254587.68    409.79243    5514.3966    16117.588 
   66300    -254673.4    82.762457   -254590.64     404.4714    5443.3601    16117.588 
   66400   -254673.36    80.877018   -254592.49    395.25701      5373.14    16117.588 
   66500   -254673.53    82.057658   -254591.47    401.02695    5450.9806    16117.588 
   66600   -254672.82     81.25592   -254591.57    397.10875    5344.7414    16117.588 
   66700   -254673.95    82.760409   -254591.19    404.46139    5524.7541    16117.588 
   66800   -254671.58    84.726369   -254586.86    414.06931    5639.0145    16117.588 
   66900   -254669.83    84.495834   -254585.34    412.94265    5614.5274    16117.588 
   67000   -254669.09    82.484499    -254586.6    403.11299    5426.1378    16117.588 
   67100   -254670.05    80.131616   -254589.91    391.61413    5270.3387    16117.588 
   67200   -254674.75    81.164905   -254593.59    396.66395    5339.5009    16117.588 
   67300   -254675.53    81.930134    -254593.6    400.40372    5389.9017    16117.588 
   67400   -254674.58    81.975782    -254592.6    400.62682    5420.3977    16117.588 
   67500   -254674.16    83.246149   -254590.91    406.83527    5475.0147    16117.588 
   67600   -254672.06    82.119999   -254589.94    401.33163     5401.129    16117.588 
   67700   -254672.37    84.914718   -254587.45     414.9898    5587.3312    16117.588 
   67800   -254668.56    83.468547   -254585.09    407.92216    5528.5804    16117.588 
   67900   -254672.33    86.739027   -254585.59    423.90544    5731.5331    16117.588 
   68000   -254668.66    78.828885   -254589.83     385.2475    5181.7805    16117.588 
   68100   -254671.45    81.098529   -254590.35    396.33956    5366.7126    16117.588 
   68200   -254671.52    80.683741   -254590.83    394.31243    5336.7317    16117.588 
   68300   -254670.15    82.161497   -254587.99    401.53443    5404.4845    16117.588 
   68400   -254669.78    84.897556   -254584.88    414.90592    5585.3128    16117.588 
   68500   -254670.59     84.35445   -254586.24    412.25169    5549.2089    16117.588 
   68600   -254673.55    83.491818   -254590.06    408.03589    5565.8781    16117.588 
   68700   -254671.96    80.541644   -254591.42    393.61799    5297.1963    16117.588 
   68800   -254673.21    81.924914   -254591.28    400.37822     5389.603    16117.588 
   68900    -254672.4    83.207344    -254589.2    406.64563    5472.8136    16117.588 
   69000   -254671.49    83.497529   -254587.99     408.0638    5494.3919    16117.588 
   69100   -254670.19    82.963856   -254587.22    405.45567    5459.3503    16117.588 
   69200    -254671.7    81.735221   -254589.97    399.45116    5421.6734    16117.588 
   69300   -254671.67     78.61042   -254593.06    384.17983     5221.159    16117.588 
   69400   -254671.25    80.217419   -254591.04    392.03346    5275.1496    16117.588 
   69500    -254670.4    82.454783   -254587.94    402.96776     5501.771    16117.588 
   69600    -254670.2    82.928218   -254587.28     405.2815    5489.9061    16117.588 
   69700   -254671.37     83.88799   -254587.48    409.97204    5518.7096    16117.588 
   69800   -254671.65    82.252183    -254589.4    401.97762    5410.9169    16117.588 
   69900   -254672.38    81.118793   -254591.26    396.43859    5386.9404    16117.588 
   70000   -254672.25    80.297866   -254591.96    392.42661    5316.5049    16117.588 
   70100   -254669.56    82.932188   -254586.63     405.3009    5497.1821    16117.588 
   70200   -254670.65    84.641536   -254586.01    413.65472    5565.9984    16117.588 
   70300   -254671.85    82.278709   -254589.57    402.10726    5412.5975    16117.588 
   70400   -254672.52     81.16214   -254591.36    396.65044    5337.9599    16117.588 
   70500   -254673.96    81.932969   -254592.02    400.41758    5413.2812    16117.588 
   70600   -254671.12    81.215774    -254589.9    396.91255    5341.1377    16117.588 
   70700   -254667.99    82.036295   -254585.96    400.92255    5472.0121    16117.588 
   70800   -254668.05    81.110215   -254586.94    396.39667    5335.3147    16117.588 
   70900   -254670.78    82.999002   -254587.78    405.62743    5514.8718    16117.588 
   71000   -254672.19    84.753994   -254587.44    414.20432    5575.8532    16117.588 
   71100   -254669.52    82.995388   -254586.52    405.60977    5458.5443    16117.588 
   71200   -254668.06    80.829363   -254587.23    395.02411    5315.8453    16117.588 
   71300   -254670.89    83.230863   -254587.66    406.76057    5473.3443    16117.588 
   71400   -254668.29    79.898057    -254588.4    390.47269    5251.6007    16117.588 
   71500   -254671.16    83.841094   -254587.32    409.74285    5514.3585    16117.588 
   71600   -254671.42    82.016916   -254589.41    400.82785    5393.0281    16117.588 
   71700   -254673.41    80.721534   -254592.69    394.49713    5332.8397    16117.588 
   71800   -254671.57    80.271853    -254591.3    392.29948     5314.625    16117.588 
   71900   -254672.92    84.016593   -254588.91    410.60053    5596.3931    16117.588 
   72000   -254670.11    81.884595   -254588.23    400.18117    5429.8585    16117.588 
   72100   -254672.54    83.499434   -254589.04    408.07311    5493.6579    16117.588 
   72200   -254671.23     80.59577   -254590.63    393.88251    5301.8458    16117.588 
   72300   -254671.78    80.607817   -254591.17    393.94138    5303.3874    16117.588 
   72400   -254671.36    83.690537   -254587.67    409.00706    5508.1747    16117.588 
   72500   -254667.66     83.07442   -254584.58    405.99601    5467.3289    16117.588 
   72600   -254671.16    85.416886   -254585.75    417.44396    5619.8073    16117.588 
   72700    -254670.4    81.902669    -254588.5     400.2695    5433.0154    16117.588 
   72800   -254671.69     81.79123    -254589.9    399.72489    5382.4992    16117.588 
   72900    -254673.1    82.102632      -254591    401.24675    5521.3594    16117.588 
   73000   -254675.37    80.043931   -254595.33    391.18559    5266.1719    16117.588 
   73100   -254675.48    79.093269   -254596.39    386.53958    5297.2086    16117.588 
   73200   -254675.98    81.602758   -254594.38     398.8038    5393.9975    16117.588 
   73300   -254673.31    82.003042   -254591.31    400.76004    5394.4291    16117.588 
   73400   -254672.37    82.557423   -254589.82    403.46937    5431.5105    16117.588 
   73500   -254673.09    85.232095   -254587.86    416.54086    5607.0052    16117.588 
   73600    -254669.7    80.498536    -254589.2    393.40731    5295.0574    16117.588 
   73700   -254671.83    78.806586   -254593.02    385.13852    5182.6516    16117.588 
   73800   -254674.98    81.257506   -254593.72     397.1165    5375.2096    16117.588 
   73900   -254672.31    80.494623   -254591.81    393.38819    5292.9495    16117.588 
   74000   -254671.36    80.728863   -254590.63    394.53295    5310.4731    16117.588 
   74100      -254672    82.441984   -254589.56    402.90521    5502.8772    16117.588 
   74200   -254669.96    81.102348   -254588.85    396.35823    5371.4025    16117.588 
   74300   -254671.15    80.670085   -254590.48    394.24569    5308.7586    16117.588 
   74400    -254673.1    79.787858   -254593.31    389.93413    5411.0462    16117.588 
   74500   -254675.76    80.401935   -254595.36    392.93521    5363.7453    16117.588 
   74600   -254677.27    82.831781   -254594.44     404.8102    5450.2694    16117.588 
   74700   -254673.73    82.744219   -254590.99    404.38227    5445.1163    16117.588 
   74800   -254673.89    84.167945   -254589.73    411.34021    5585.5181    16117.588 
   74900   -254672.44    81.065935   -254591.38    396.18027    5330.4103    16117.588 
   75000   -254674.37    80.139209   -254594.23    391.65123    5322.9849    16117.588 
   75100   -254674.78    78.486575    -254596.3    383.57458    5162.4105    16117.588 
   75200   -254672.42    80.460468   -254591.96    393.22127     5291.924    16117.588 
   75300   -254671.02    82.037248   -254588.98    400.92721    5443.6525    16117.588 
   75400   -254672.42    83.112762   -254589.31    406.18339    5532.2254    16117.588 
   75500   -254673.36    80.821543   -254592.54    394.98589    5385.5348    16117.588 
   75600   -254674.71    81.057829   -254593.65    396.14065    5332.9083    16117.588 
   75700   -254672.18    81.315224   -254590.87    397.39858    5348.2367    16117.588 
   75800   -254673.07     84.74345   -254588.33    414.15279    5658.9161    16117.588 
   75900   -254670.72    82.360699   -254588.36    402.50796    5522.1707    16117.588 
   76000   -254672.76    82.237455   -254590.52    401.90565    5488.7087    16117.588 
   76100   -254673.56    81.272237   -254592.29     397.1885    5394.1602    16117.588 
   76200   -254673.45    80.527224   -254592.92    393.54752    5295.3017    16117.588 
   76300   -254673.65    82.395666   -254591.25    402.67884     5420.309    16117.588 
   76400   -254671.69    81.331243   -254590.36    397.47687    5348.8587    16117.588 
   76500   -254670.88    81.248229   -254589.63    397.07116    5397.4122    16117.588 
   76600   -254674.02     84.27758   -254589.74    411.87602     5544.903    16117.588 
   76700   -254673.58    81.369758   -254592.21    397.66509    5353.4294    16117.588 
   76800   -254674.97    80.148949   -254594.82    391.69884    5272.1673    16117.588 
   76900   -254673.04    80.001827   -254593.04    390.97983    5333.8152    16117.588 
   77000   -254670.76    81.873713   -254588.89    400.12799     5407.347    16117.588 
   77100   -254670.49    82.233198   -254588.26    401.88484    5406.9636    16117.588 
   77200   -254668.73    80.108631   -254588.62     391.5018    5343.8107    16117.588 
   77300   -254672.78    82.646083   -254590.14    403.90267    5499.5722    16117.588 
   77400   -254674.62    80.748256   -254593.87    394.62773     5308.947    16117.588 
   77500   -254677.04    82.132082   -254594.91    401.39067     5401.411    16117.588 
   77600   -254674.84    81.592624   -254593.25    398.75427    5391.5426    16117.588 
   77700   -254671.74    83.614712   -254588.13    408.63649    5612.6424    16117.588 
   77800   -254672.43    84.339604   -254588.09    412.17914    5544.3455    16117.588 
   77900   -254672.54    82.085683   -254590.45    401.16391    5428.9415    16117.588 
   78000   -254675.12    82.798323   -254592.32    404.64669    5445.3625    16117.588 
   78100   -254676.55    82.031532   -254594.52    400.89927    5462.9019    16117.588 
   78200   -254677.25    80.532336   -254596.71     393.5725    5347.8575    16117.588 
   78300   -254675.16    81.743015   -254593.41    399.48925    5371.7904    16117.588 
   78400   -254671.92    82.260615   -254589.66    402.01884    5409.2412    16117.588 
   78500      -254670    81.321035   -254588.68    397.42698    5398.4875    16117.588 
   78600   -254671.06    82.593369   -254588.46    403.64505      5432.74    16117.588 
   78700   -254671.46    81.237608   -254590.22    397.01926     5342.691    16117.588 
   78800   -254673.72       80.425   -254593.29    393.04793    5290.5932    16117.588 
   78900   -254674.97     81.26169   -254593.71    397.13695    5345.0748    16117.588 
   79000   -254672.06    80.132296   -254591.92    391.61745     5270.147    16117.588 
   79100   -254669.47    81.351657   -254588.12    397.57663    5350.5273    16117.588 
   79200   -254669.06    81.953088   -254587.11    400.51591    5419.4166    16117.588 
   79300   -254669.82    81.285128   -254588.53     397.2515    5345.2067    16117.588 
   79400   -254669.69    79.284663    -254590.4    387.47495     5248.393    16117.588 
   79500   -254673.18    82.443052   -254590.73    402.91043     5466.016    16117.588 
   79600   -254672.91    82.076093   -254590.84    401.11705    5397.8679    16117.588 
   79700   -254673.81    83.832324   -254589.97    409.69999    5515.7902    16117.588 
   79800   -254672.85    82.957069   -254589.89     405.4225    5493.7542    16117.588 
   79900      -254675     82.49115   -254592.51    403.14549    5483.5106    16117.588 
   80000    -254675.1    80.301089    -254594.8    392.44236    5316.2653    16117.588 
   80100   -254676.15    82.336345   -254593.81    402.38894    5460.1962    16117.588 
   80200   -254672.72    80.720735   -254591.99    394.49323    5381.3106    16117.588 
   80300   -254670.95    83.630194   -254587.32    408.71215    5596.7668    16117.588 
   80400   -254669.85    83.563482   -254586.29    408.38612    5499.6214    16117.588 
   80500   -254671.95     83.49032   -254588.46    408.02857    5494.5659    16117.588 
   80600   -254674.13    82.970279   -254591.16    405.48706    5527.0035    16117.588 
   80700   -254673.79    81.308186   -254592.48    397.36418    5423.4248    16117.588 
   80800   -254675.21     83.05101   -254592.16     405.8816    5466.4298    16117.588 
   80900   -254674.12    81.608679   -254592.51    398.83273    5370.0187    16117.588 
   81000   -254675.01    84.917355    -254590.1    415.00268     5753.525    16117.588 
   81100   -254674.65    85.756737   -254588.89    419.10486    5668.5319    16117.588 
   81200   -254674.45    82.295281   -254592.15    402.18825    5415.0997    16117.588 
   81300   -254676.12    82.328654   -254593.79    402.35135    5542.7788    16117.588 
   81400    -254674.7    80.489674   -254594.21      393.364    5294.3167    16117.588 
   81500   -254673.24    81.421713   -254591.82    397.91901    5355.7429    16117.588 
   81600   -254672.84    84.817885   -254588.02    414.51656    5583.1532    16117.588 
   81700   -254673.25    82.940914   -254590.31    405.34355    5458.2095    16117.588 
   81800   -254673.13    80.089627   -254593.04    391.40892     5306.064    16117.588 
   81900   -254673.41    80.527407   -254592.88    393.54841    5431.7287    16117.588 
   82000   -254670.87    80.372084    -254590.5    392.78932    5287.5783    16117.588 
   82100   -254672.06    84.804021   -254587.26     414.4488    5627.9792    16117.588 
   82200   -254669.64    81.639773      -254588    398.98469    5467.8276    16117.588 
   82300    -254673.6    82.929254   -254590.67    405.28656    5482.6751    16117.588 
   82400   -254675.37    82.578593   -254592.79    403.57284    5434.9076    16117.588 
   82500   -254674.59    81.135894   -254593.45    396.52217    5387.1477    16117.588 
   82600   -254675.44    83.066054   -254592.37    405.95513    5465.7482    16117.588 
   82700   -254672.95    82.338623   -254590.62    402.40007    5417.9883    16117.588 
   82800   -254671.62    82.754371   -254588.87    404.43189    5468.9823    16117.588 
   82900    -254671.2    81.348055   -254589.85    397.55903    5436.4435    16117.588 
   83000   -254676.33    83.220471   -254593.11    406.70978    5476.7004    16117.588 
   83100   -254675.93    80.617227   -254595.31    393.98737    5329.3058    16117.588 
   83200   -254675.72    82.518445    -254593.2    403.27888    5600.6337    16117.588 
   83300   -254671.49    81.052631   -254590.43    396.11525    5329.6777    16117.588 
   83400   -254671.66    82.880424   -254588.78    405.04792    5487.0481    16117.588 
   83500   -254673.58     84.02605   -254589.55    410.64676    5552.8663    16117.588 
   83600   -254674.18    81.922466   -254592.26    400.36625    5428.3262    16117.588 
   83700   -254673.29    79.379694   -254593.91    387.93938    5221.5816    16117.588 
   83800    -254672.5    78.931139   -254593.57    385.74723    5191.9394    16117.588 
   83900   -254673.12    83.682577   -254589.44    408.96815    5507.7531    16117.588 
   84000    -254673.6    85.360089   -254588.24    417.16638    5661.4143    16117.588 
   84100   -254673.49     84.10269   -254589.39    411.02131    5594.6857    16117.588 
   84200   -254670.88    78.887721      -254592    385.53504    5190.3953    16117.588 
   84300    -254672.8    80.724818   -254592.08    394.51318    5312.1413    16117.588 
   84400   -254672.27    83.387133   -254588.88    407.52428     5512.259    16117.588 
   84500   -254672.32    87.078919   -254585.24    425.56654    5732.3035    16117.588 
   84600   -254671.65     82.98939   -254588.66    405.58046    5461.3885    16117.588 
   84700   -254673.91     81.91781      -254592     400.3435    5390.3893    16117.588 
   84800   -254674.56    81.992318   -254592.57    400.70763     5429.165    16117.588 
   84900   -254675.74    82.425671   -254593.31    402.82548    5424.5347    16117.588 
   85000   -254674.16     81.84929   -254592.31    400.00863    5386.6403    16117.588 
   85100   -254672.98    83.469713   -254589.51    407.92786    5491.7742    16117.588 
   85200   -254670.64    83.237425    -254587.4    406.79264    5476.0793    16117.588 
   85300   -254669.72    82.087426   -254587.64    401.17243    5399.5174    16117.588 
   85400    -254671.3    81.644506   -254589.66    399.00783     5403.663    16117.588 
   85500   -254672.02    79.689001   -254592.33      389.451    5336.1655    16117.588 
   85600   -254673.66    81.394825   -254592.26     397.7876    5355.8899    16117.588 
   85700   -254671.38    80.674201   -254590.71    394.26581     5308.081    16117.588 
   85800   -254671.23    84.126189    -254587.1    411.13615    5534.6339    16117.588 
   85900   -254670.95    86.058182   -254584.89    420.57806    5665.1087    16117.588 
   86000   -254669.14    83.238724    -254585.9    406.79898    5479.0047    16117.588 
   86100   -254670.23    83.324133   -254586.91    407.21639    5483.2949    16117.588 
   86200   -254670.76    82.003329   -254588.76    400.76144    5397.0169    16117.588 
   86300   -254673.93    79.465935   -254594.46    388.36085    5258.0838    16117.588 
   86400   -254673.62    78.759159   -254594.86    384.90674    5207.4709    16117.588 
   86500   -254673.45    82.300566   -254591.15    402.21408    5492.8304    16117.588 
   86600    -254671.8    82.844318   -254588.96    404.87147    5455.0347    16117.588 
   86700   -254671.04    82.280715   -254588.76    402.11706    5416.7092    16117.588 
   86800   -254673.88    83.189442   -254590.69    406.55813    5476.4914    16117.588 
   86900   -254672.91    78.115866   -254594.79    381.76288    5140.3601    16117.588 
   87000   -254675.22    80.784018   -254594.43     394.8025    5367.8147    16117.588 
   87100   -254675.78    82.736786   -254593.05    404.34594    5508.1821    16117.588 
   87200   -254672.35    81.773312   -254590.58    399.63732    5382.2473    16117.588 
   87300    -254672.1    85.990281   -254586.11    420.24622    5685.5185    16117.588 
   87400   -254672.59    85.970135   -254586.62    420.14776    5659.9997    16117.588 
   87500   -254672.73    83.456082   -254589.28    407.86124    5492.5717    16117.588 
   87600   -254672.71    81.298553   -254591.42     397.3171    5349.7006    16117.588 
   87700   -254671.28    78.638767   -254592.65    384.31837    5174.7495    16117.588 
   87800   -254673.27    82.274154      -254591      402.085    5415.3561    16117.588 
   87900   -254671.04    83.730297   -254587.31    409.20137    5559.9518    16117.588 
   88000   -254668.66    81.846408   -254586.81    399.99455    5386.0048    16117.588 
   88100   -254671.03    79.117646   -254591.91    386.65872    5277.7544    16117.588 
   88200   -254672.44    80.010253   -254592.43    391.02101    5338.9988    16117.588 
   88300   -254671.65    81.234758   -254590.42    397.00533    5346.7706    16117.588 
[...]
  403100   -254668.55    82.975334   -254585.57    405.51176    5460.0406    16117.588 
  403200   -254668.93    81.236334   -254587.69    397.01303    5343.3959    16117.588 
  403300   -254670.09    81.792238    -254588.3    399.72981    5381.4449    16117.588 
  403400   -254673.47    83.451761   -254590.01    407.84013    5491.7223    16117.588 
  403500   -254674.55    82.779582   -254591.77     404.5551    5447.9063    16117.588 
  403600   -254673.96    80.965738      -254593    395.69059    5326.9602    16117.588 
  403700    -254673.5    81.760336   -254591.74     399.5739    5506.1603    16117.588 
  403800   -254671.55    81.511126   -254590.04    398.35598    5412.1273    16117.588 
  403900   -254670.93    80.973898   -254589.96    395.73047    5357.5305    16117.588 
  404000   -254673.32     83.11777    -254590.2    406.20786    5541.5308    16117.588 
  404100   -254674.86    84.338661   -254590.52    412.17453    5582.1367    16117.588 
  404200   -254672.51    78.445172   -254594.06    383.37224    5157.0717    16117.588 
  404300   -254674.33    80.453814   -254593.87    393.18875    5319.8431    16117.588 
  404400    -254673.8    81.981175   -254591.82    400.65317    5389.5757    16117.588 
  404500   -254671.73    84.944588   -254586.79    415.13578    5588.4289    16117.588 
  404600   -254669.34    82.155515   -254587.18    401.50519     5403.607    16117.588 
  404700   -254672.32    83.067207   -254589.25    405.96076    5488.5187    16117.588 
  404800   -254672.79    81.909178   -254590.88    400.30131    5389.2049    16117.588 
  404900   -254672.73    81.744379   -254590.98    399.49592    5405.7932    16117.588 
  405000   -254671.52    81.676295   -254589.84    399.16318    5397.3438    16117.588 
  405100   -254673.26     86.70199   -254586.56    423.72444     5837.257    16117.588 
  405200   -254671.16    86.407313   -254584.76    422.28431     5684.193    16117.588 
  405300   -254672.47    83.651821   -254588.82    408.81785    5504.5788    16117.588 
  405400   -254672.36    80.837648   -254591.52     395.0646    5316.6494    16117.588 
  405500   -254673.75     81.41237   -254592.34    397.87334    5353.7156    16117.588 
  405600      -254677    83.717598   -254593.29    409.13931    5509.8842    16117.588 
  405700   -254674.13    79.154113   -254594.98    386.83694    5206.6939    16117.588 
  405800   -254675.91    81.270371   -254594.64    397.17938    5370.1297    16117.588 
  405900   -254673.43    82.637508   -254590.79    403.86076    5509.1002    16117.588 
  406000   -254671.91    83.039292   -254588.87    405.82433    5493.1659    16117.588 
  406100   -254672.04    82.414854   -254589.62    402.77262    5421.9913    16117.588 
  406200    -254673.3    81.828954   -254591.47    399.90925    5384.5301    16117.588 
  406300   -254676.07     81.26806    -254594.8    397.16808    5489.0758    16117.588 
  406400   -254673.39     78.35565   -254595.03    382.93474    5367.9929    16117.588 
  406500   -254672.14     80.72488   -254591.42    394.51349    5311.0123    16117.588 
  406600    -254668.6    79.102011    -254589.5    386.58231    5316.7237    16117.588 
  406700   -254668.75    81.700956   -254587.05     399.2837    5422.7173    16117.588 
  406800   -254670.47    84.256286   -254586.22    411.77195    5594.5575    16117.588 
  406900   -254670.54    81.363548   -254589.17    397.63474     5353.256    16117.588 
  407000   -254672.76     80.40518   -254592.36    392.95107    5290.3598    16117.588 
  407100   -254675.12    79.108769   -254596.01    386.61533    5204.1562    16117.588 
  407200   -254676.82    79.509864   -254597.31    388.57554    5231.4175    16117.588 
  407300   -254674.43    81.617693   -254592.81    398.87679    5404.1305    16117.588 
  407400   -254673.65    82.877278   -254590.77    405.03255    5453.1352    16117.588 
  407500   -254671.97    82.623068   -254589.35    403.79019    5495.8106    16117.588 
  407600   -254672.21    82.315581   -254589.89    402.28746    5499.8451    16117.588 
  407700   -254673.69    81.006068   -254592.68    395.88769     5358.447    16117.588 
  407800   -254673.88    79.231002   -254594.65     387.2127    5212.0001    16117.588 
  407900   -254672.76    80.792421   -254591.96    394.84357    5341.6248    16117.588 
  408000   -254672.16    82.098146   -254590.06    401.22483    5402.7506    16117.588 
  408100   -254671.11    81.486658   -254589.62     398.2364    5361.7708    16117.588 
  408200   -254669.79    82.152722   -254587.63    401.49154    5406.4249    16117.588 
  408300   -254670.18    84.244048   -254585.93    411.71214    5628.2631    16117.588 
  408400    -254669.5    80.601754    -254588.9    393.91175    5399.0088    16117.588 
  408500   -254671.41    78.638564   -254592.77    384.31738    5174.6204    16117.588 
  408600   -254671.46    79.339179   -254592.12    387.74137    5282.6599    16117.588 
  408700   -254671.45    83.328402   -254588.12    407.23726    5485.5295    16117.588 
  408800   -254668.92    81.790674   -254587.12    399.72217    5382.9405    16117.588 
  408900    -254668.5    81.468982   -254587.03    398.15001    5361.6491    16117.588 
  409000   -254670.07    82.133174   -254587.93    401.39601     5526.734    16117.588 
  409100   -254672.66    82.162633    -254590.5    401.53998     5409.084    16117.588 
  409200   -254673.69    80.530669   -254593.16    393.56435    5301.0152    16117.588 
  409300   -254672.95    81.010695   -254591.94    395.91031      5407.19    16117.588 
  409400    -254672.2    82.999626    -254589.2    405.63048    5464.1014    16117.588 
  409500   -254671.38    82.299129   -254589.08    402.20706    5505.4819    16117.588 
  409600   -254672.18    82.622227   -254589.56    403.78608    5514.3958    16117.588 
  409700    -254673.9    79.697545    -254594.2    389.49276    5246.6081    16117.588 
  409800   -254674.74    78.811529   -254595.93    385.16268    5188.3448    16117.588 
  409900   -254672.48    80.211024   -254592.27     392.0022    5318.6771    16117.588 
  410000   -254671.74    82.285712   -254589.45    402.14148    5418.9001    16117.588 
  410100   -254671.98    83.175291    -254588.8    406.48898     5476.245    16117.588 
  410200   -254672.43    81.945268   -254590.48    400.47769    5395.3825    16117.588 
  410300   -254674.25    80.978973   -254593.27    395.75528     5365.071    16117.588 
  410400   -254673.67    81.049202   -254592.62    396.09849    5477.1698    16117.588 
  410500   -254673.24    85.789094   -254587.45    419.26299    5650.1901    16117.588 
  410600   -254672.88    84.672251   -254588.21    413.80483     5650.938    16117.588 
  410700   -254674.84    84.197272   -254590.64    411.48354      5545.61    16117.588 
  410800   -254673.07     81.43569   -254591.64    397.98731    5400.4417    16117.588 
  410900   -254673.84    82.493851   -254591.35    403.15869    5433.2234    16117.588 
  411000   -254671.83    81.155237   -254590.67     396.6167     5406.608    16117.588 
  411100   -254671.88    82.616663   -254589.26    403.75889    5498.2136    16117.588 
  411200    -254669.5    84.836806   -254584.66    414.60903    5613.0416    16117.588 
  411300   -254669.12    83.631822   -254585.48    408.72011     5507.051    16117.588 
  411400   -254670.65    81.238525   -254589.41    397.02374    5348.5238    16117.588 
  411500   -254671.78    80.292978   -254591.48    392.40272    5283.6387    16117.588 
  411600   -254674.26    82.813779   -254591.45    404.72222    5451.8931    16117.588 
  411700      -254673    83.012917   -254589.99    405.69543    5537.4929    16117.588 
  411800   -254672.92    83.600775   -254589.32    408.56838    5497.9126    16117.588 
  411900   -254672.21    82.754779   -254589.45    404.43388      5471.98    16117.588 
  412000   -254674.16     82.91142   -254591.25    405.19941    5565.5018    16117.588 
  412100   -254673.21    78.901051   -254594.31    385.60018    5248.4369    16117.588 
  412200    -254674.6    81.203601    -254593.4    396.85306    5344.2542    16117.588 
  412300   -254673.41     83.61215    -254589.8    408.62397    5567.4412    16117.588 
  412400   -254672.36    83.222117   -254589.14    406.71782    5511.0983    16117.588 
  412500   -254672.21    82.128498   -254590.08    401.37316     5407.318    16117.588 
  412600   -254672.66    81.404904   -254591.25    397.83686    5415.9845    16117.588 
  412700   -254673.86    81.740799   -254592.12    399.47842    5470.1066    16117.588 
  412800   -254673.95    84.606637   -254589.34    413.48416    5573.5236    16117.588 
  412900   -254669.91    82.083756   -254587.83     401.1545    5405.9474    16117.588 
  413000   -254672.13     82.47419   -254589.65     403.0626     5484.213    16117.588 
  413100   -254674.52     81.36557   -254593.16    397.64463    5358.7835    16117.588 
  413200   -254672.21     78.70734    -254593.5    384.65349     5182.606    16117.588 
  413300   -254673.22    81.711985   -254591.51     399.3376    5463.3093    16117.588 
  413400   -254672.66    82.713504   -254589.94    404.23216     5479.537    16117.588 
  413500   -254672.66    82.243856   -254590.42    401.93693    5474.0761    16117.588 
  413600   -254674.11    81.762479   -254592.35    399.58438    5385.8776    16117.588 
  413700   -254675.14    82.254981   -254592.88     401.9913     5414.815    16117.588 
  413800   -254673.41    83.161922   -254590.25    406.42364    5477.5032    16117.588 
  413900   -254669.37    82.575331   -254586.79    403.55689    5438.4154    16117.588 
  414000   -254668.15    81.919048   -254586.23    400.34955    5393.5278    16117.588 
  414100   -254671.38    82.189323    -254589.2    401.67042    5412.5571    16117.588 
  414200   -254672.32    80.467596   -254591.86     393.2561    5297.3765    16117.588 
  414300   -254675.34    83.318413   -254592.02    407.18844    5486.5142    16117.588 
  414400   -254675.16    82.890328   -254592.26    405.09632    5457.3097    16117.588 
  414500   -254673.87    80.082041   -254593.79    391.37185    5272.1218    16117.588 
  414600   -254674.81    79.425541   -254595.39    388.16344    5258.9154    16117.588 
  414700   -254676.03    82.447873   -254593.59    402.93399    5428.4903    16117.588 
  414800   -254673.98    84.317147   -254589.66    412.06939    5551.6973    16117.588 
  414900   -254672.82    83.195839   -254589.63     406.5894    5477.0923    16117.588 
  415000   -254672.73    81.005763   -254591.72     395.8862    5332.6896    16117.588 
  415100   -254674.77      82.3882   -254592.38    402.64236    5424.1783    16117.588 
  415200   -254672.55    80.625788   -254591.93    394.02921    5306.7671    16117.588 
  415300   -254670.27     78.97562   -254591.29    385.96461    5197.9654    16117.588 
  415400   -254673.09    83.367482   -254589.72    407.42824    5528.2147    16117.588 
  415500   -254672.28    82.367477   -254589.91    402.54108    5462.9089    16117.588 
  415600   -254675.45    83.174522   -254592.28    406.48522    5518.7559    16117.588 
  415700   -254676.43    81.884268   -254594.55    400.17957    5420.5775    16117.588 
  415800   -254675.38    81.374073      -254594    397.68618    5411.0381    16117.588 
  415900   -254675.41     83.80804    -254591.6    409.58131    5578.3563    16117.588 
  416000   -254672.89    82.798001   -254590.09    404.64511     5449.806    16117.588 
  416100   -254671.29    82.336471   -254588.96    402.38955    5444.3188    16117.588 
  416200    -254669.6     82.55001   -254587.05    403.43314    5456.6276    16117.588 
  416300   -254668.38    83.274203    -254585.1    406.97238    5481.9969    16117.588 
  416400   -254669.44    82.739115    -254586.7    404.35733    5476.8256    16117.588 
  416500   -254670.31    80.024105   -254590.29     391.0887    5448.5357    16117.588 
  416600   -254672.18    82.088209   -254590.09    401.17626    5427.7946    16117.588 
  416700   -254672.32    83.404417   -254588.92    407.60875    5491.4248    16117.588 
  416800   -254673.01    84.787412   -254588.23    414.36764    5582.0924    16117.588 
  416900   -254671.33    81.886356   -254589.45    400.18978    5490.0017    16117.588 
  417000   -254671.24    79.708602   -254591.53     389.5468    5271.4901    16117.588 
  417100   -254671.56    79.081347   -254592.48    386.48132     5205.897    16117.588 
  417200   -254670.84     82.80311   -254588.04    404.67008    5452.9318    16117.588 
  417300   -254670.65    83.218931   -254587.43    406.70225    5520.3284    16117.588 
  417400   -254672.99    84.026751   -254588.97    410.65018    5676.2062    16117.588 
  417500   -254675.49    82.847726   -254592.64    404.88812    5455.3754    16117.588 
  417600    -254675.1    82.655692   -254592.45    403.94963    5442.7163    16117.588 
  417700   -254673.93    83.277822   -254590.66    406.99006    5482.7528    16117.588 
  417800   -254673.92     82.05888   -254591.86    401.03293    5439.1761    16117.588 
  417900   -254675.06    79.202017   -254595.86    387.07105    5213.9746    16117.588 
  418000   -254675.51      79.0301   -254596.48    386.23087    5201.7632    16117.588 
  418100   -254673.99    80.892696    -254593.1    395.33363    5326.3361    16117.588 
  418200   -254675.16    83.223389   -254591.94    406.72404    5476.0543    16117.588 
  418300   -254672.58    80.264805   -254592.32    392.26504     5269.689    16117.588 
  418400   -254671.74    81.021518   -254590.72     395.9632    5332.3675    16117.588 
  418500   -254670.66    83.008791   -254587.65    405.67527    5494.9151    16117.588 
  418600   -254671.21    83.874262   -254587.33    409.90494    5521.5411    16117.588 
  418700   -254670.56    79.997761   -254590.56    390.95996    5305.1293    16117.588 
  418800   -254673.46    79.901503   -254593.56    390.48953    5257.6349    16117.588 
  418900   -254676.63    77.599005   -254599.03    379.23691    5156.8163    16117.588 
  419000   -254678.04    79.289407   -254598.75    387.49814    5300.8369    16117.588 
  419100   -254673.82    78.346625   -254595.47    382.89063    5231.9335    16117.588 
  419200    -254670.1    78.230294   -254591.87    382.32211    5149.2537    16117.588 
  419300   -254671.84    83.035478    -254588.8    405.80569    5467.7893    16117.588 
  419400   -254671.91    82.862862   -254589.05     404.9621    5454.7328    16117.588 
  419500   -254671.87    79.755373   -254592.11    389.77537    5344.4876    16117.588 
  419600   -254671.09    78.836044   -254592.25    385.28249     5186.632    16117.588 
  419700   -254670.54    80.536026   -254590.01    393.59053    5369.3376    16117.588 
  419800   -254670.67    81.624058   -254589.04    398.90789    5371.5161    16117.588 
  419900   -254669.14    81.908424   -254587.23    400.29763    5384.0866    16117.588 
  420000    -254671.8     85.15193   -254586.64    416.14908    5601.4642    16117.588 
  420100   -254675.53    85.406974   -254590.13    417.39552    5621.4536    16117.588 
  420200   -254672.46    79.710178   -254592.75     389.5545    5245.1554    16117.588 
  420300   -254673.25    81.301671   -254591.94    397.33234    5350.4435    16117.588 
  420400   -254672.05    82.120257   -254589.93    401.33288     5404.827    16117.588 
  420500   -254669.25    81.979458   -254587.27    400.64478    5396.0588    16117.588 
  420600   -254671.46    83.809394   -254587.65    409.58793    5590.1204    16117.588 
  420700   -254670.74    81.503627   -254589.24    398.31933    5363.8155    16117.588 
  420800    -254670.9    80.791947   -254590.11    394.84125    5315.2241    16117.588 
  420900   -254669.64    79.755844   -254589.88    389.77768    5248.3422    16117.588 
  421000   -254672.44    82.354689   -254590.09    402.47858    5420.1564    16117.588 
  421100   -254673.32     80.42951    -254592.9    393.06998    5332.4809    16117.588 
  421200   -254674.64    79.074554   -254595.57    386.44812    5201.8449    16117.588 
  421300   -254676.33    82.037158   -254594.29    400.92677    5426.7769    16117.588 
  421400   -254672.49    81.012741   -254591.47     395.9203    5332.1204    16117.588 
  421500   -254672.87    84.588879   -254588.29    413.39737    5600.8118    16117.588 
  421600   -254670.44    81.137987    -254589.3     396.5324    5340.5418    16117.588 
  421700   -254670.46    79.964007   -254590.49      390.795    5261.8356    16117.588 
  421800   -254671.22    79.802408   -254591.42    390.00524    5251.2671    16117.588 
  421900   -254672.16    81.383789   -254590.78    397.73366      5440.71    16117.588 
  422000   -254671.95    82.744182    -254589.2    404.38209    5474.8602    16117.588 
  422100   -254669.67     84.61611   -254585.06    413.53046     5570.395    16117.588 
  422200   -254669.14    83.563717   -254585.58    408.38727     5501.225    16117.588 
  422300   -254670.47     81.12951   -254589.34    396.49097    5369.8701    16117.588 
  422400   -254672.36    81.534906   -254590.82     398.4722    5366.6272    16117.588 
  422500   -254673.62    82.296153   -254591.32    402.19251    5416.7282    16117.588 
  422600   -254673.82    83.223124   -254590.59    406.72275    5479.2275    16117.588 
  422700   -254668.88    81.825903   -254587.06    399.89434    5436.5696    16117.588 
  422800   -254670.05    85.436213   -254584.62    417.53841    5625.5933    16117.588 
  422900   -254673.26     84.80028   -254588.46    414.43052    5614.8924    16117.588 
  423000    -254673.3    82.744207   -254590.56    404.38221    5530.9458    16117.588 
  423100   -254674.03    82.501934   -254591.53    403.19819    5528.2831    16117.588 
  423200   -254673.74    82.144107    -254591.6    401.44944    5438.9572    16117.588 
  423300   -254674.36    83.372792   -254590.99    407.45419    5545.7742    16117.588 
  423400   -254673.31    81.937454   -254591.37     400.4395    5421.6599    16117.588 
  423500    -254673.2     80.60496   -254592.59    393.92742    5304.3008    16117.588 
  423600   -254673.93    82.215819   -254591.71    401.79991     5411.002    16117.588 
  423700    -254673.6    83.008896    -254590.6    405.67578    5463.7729    16117.588 
  423800   -254670.46    81.956727    -254588.5    400.53369    5394.5043    16117.588 
  423900   -254670.22    83.224852   -254586.99    406.73119    5533.0917    16117.588 
  424000   -254669.97    80.783429   -254589.19    394.79962    5314.7425    16117.588 
  424100   -254675.06    82.650388   -254592.41    403.92371     5437.716    16117.588 
  424200   -254674.05    80.779874   -254593.27    394.78225    5424.5378    16117.588 
  424300    -254675.3    82.746513   -254592.55    404.39348    5502.7572    16117.588 
  424400   -254675.06    86.159298    -254588.9    421.07223    5755.3322    16117.588 
  424500    -254674.4    87.042325   -254587.36     425.3877    5764.7181    16117.588 
  424600   -254674.04    83.447916   -254590.59    407.82133    5492.0403    16117.588 
  424700   -254675.37    81.642899   -254593.73    398.99997    5373.1225    16117.588 
  424800   -254676.45    81.759346   -254594.69    399.56906      5381.34    16117.588 
  424900   -254674.17    79.959016   -254594.21     390.7706    5261.0659    16117.588 
  425000    -254674.9    83.491835   -254591.41    408.03597    5494.3293    16117.588 
  425100   -254673.19    85.011912   -254588.17     415.4648     5593.714    16117.588 
  425200   -254674.13    84.603264   -254589.52    413.46768    5567.7322    16117.588 
  425300   -254675.03    81.084403   -254593.95    396.27052    5335.0931    16117.588 
  425400   -254673.23    79.513949   -254593.72     388.5955    5266.9411    16117.588 
  425500   -254674.08     81.40949   -254592.67    397.85927    5356.7174    16117.588 
  425600   -254672.62    82.671018   -254589.95    404.02453    5438.7997    16117.588 
  425700   -254672.04    84.089028   -254587.95    410.95453  