LAMMPS Description

     1584  atoms
     4  atom types

  0.0 25.26 xlo xhi
  0.0 25.26 ylo yhi
  0.0 25.26 zlo zhi

Masses

1 15.9994  # O
2 1.008  # H
3 6.941  # Li
4 35.453  # Cl

Atoms  # full

1 1 0.0 0.0 0.0 0.0
2 2 0.0 0.8164904 0.0 0.577359
3 2 0.0 -0.8164904 0.0 0.577359
4 1 0.0 3.1575 0.01 0.01
5 2 0.0 3.9739904 0.01 0.587359
6 2 0.0 2.3410096000000005 0.01 0.587359
7 1 0.0 6.315 0.02 0.02
8 2 0.0 7.131490400000001 0.02 0.597359
9 2 0.0 5.4985096 0.02 0.597359
10 1 0.0 9.4725 0.03 0.03
11 2 0.0 10.2889904 0.03 0.607359
12 2 0.0 8.6560096 0.03 0.607359
13 1 0.0 12.63 0.04 0.04
14 2 0.0 13.4464904 0.04 0.617359
15 2 0.0 11.813509600000001 0.04 0.617359
16 1 0.0 15.787500000000001 0.05 0.05
17 2 0.0 16.6039904 0.05 0.627359
18 2 0.0 14.971009600000002 0.05 0.627359
19 1 0.0 18.945 0.060000000000000005 0.060000000000000005
20 2 0.0 19.7614904 0.060000000000000005 0.637359
21 2 0.0 18.1285096 0.060000000000000005 0.637359
22 1 0.0 22.1025 0.07 0.07
23 2 0.0 22.9189904 0.07 0.647359
24 2 0.0 21.2860096 0.07 0.647359
25 1 0.0 0.01 3.1575 0.01
26 2 0.0 0.8264904 3.1575 0.587359
27 2 0.0 -0.8064903999999999 3.1575 0.587359
28  1 0.0 3.1675 3.1675 0.02
29  2 0.0 3.9839903999999997 3.1675 0.597359
30  2 0.0 2.3510096000000003 3.1675 0.597359
31  1 0.0 6.325 3.1774999999999998 0.03
32  2 0.0 7.1414904 3.1774999999999998 0.607359
33  2 0.0 5.5085096 3.1774999999999998 0.607359
34  1 0.0 9.4825 3.1874999999999996 0.04
35  2 0.0 10.2989904 3.1874999999999996 0.617359
36  2 0.0 8.6660096 3.1874999999999996 0.617359
37  1 0.0 12.64 3.1974999999999993 0.05
38  2 0.0 13.4564904 3.1974999999999993 0.627359
39  2 0.0 11.823509600000001 3.1974999999999993 0.627359
40  1 0.0 15.797500000000001 3.207499999999999 0.060000000000000005
41  2 0.0 16.613990400000002 3.207499999999999 0.637359
42  2 0.0 14.981009600000002 3.207499999999999 0.637359
43  1 0.0 18.955000000000002 3.217499999999999 0.07
44  2 0.0 19.7714904 3.217499999999999 0.647359
45  2 0.0 18.138509600000003 3.217499999999999 0.647359
46  1 0.0 22.1125 3.2274999999999987 0.08
47  2 0.0 22.9289904 3.2274999999999987 0.6573589999999999
48  2 0.0 21.2960096 3.2274999999999987 0.6573589999999999
49  1 0.0 0.02 6.315 0.02
50  2 0.0 0.8364904 6.315 0.597359
51  2 0.0 -0.7964903999999999 6.315 0.597359
52  1 0.0 3.1775 6.325 0.03
53  2 0.0 3.9939904000000004 6.325 0.607359
54  2 0.0 2.3610096 6.325 0.607359
55  1 0.0 6.335000000000001 6.335 0.04
56  2 0.0 7.151490400000001 6.335 0.617359
57  2 0.0 5.518509600000001 6.335 0.617359
58  1 0.0 9.492500000000001 6.345 0.05
59  2 0.0 10.3089904 6.345 0.627359
60  2 0.0 8.676009600000002 6.345 0.627359
61  1 0.0 12.650000000000002 6.3549999999999995 0.060000000000000005
62  2 0.0 13.466490400000001 6.3549999999999995 0.637359
63  2 0.0 11.833509600000003 6.3549999999999995 0.637359
64  1 0.0 15.807500000000003 6.364999999999999 0.07
65  2 0.0 16.623990400000004 6.364999999999999 0.647359
66  2 0.0 14.991009600000003 6.364999999999999 0.647359
67  1 0.0 18.965000000000003 6.374999999999999 0.08
68  2 0.0 19.781490400000003 6.374999999999999 0.6573589999999999
69  2 0.0 18.148509600000004 6.374999999999999 0.6573589999999999
70  1 0.0 22.122500000000002 6.384999999999999 0.09
71  2 0.0 22.9389904 6.384999999999999 0.6673589999999999
72  2 0.0 21.306009600000003 6.384999999999999 0.6673589999999999
73  1 0.0 0.03 9.4725 0.03
74  2 0.0 0.8464904 9.4725 0.607359
75  2 0.0 -0.7864903999999999 9.4725 0.607359
76  1 0.0 3.1875 9.4825 0.04
77  2 0.0 4.0039904 9.4825 0.617359
78  2 0.0 2.3710096 9.4825 0.617359
79  1 0.0 6.345000000000001 9.4925 0.05
80  2 0.0 7.161490400000001 9.4925 0.627359
81  2 0.0 5.5285096000000005 9.4925 0.627359
82  1 0.0 9.502500000000001 9.5025 0.060000000000000005
83  2 0.0 10.3189904 9.5025 0.637359
84  2 0.0 8.686009600000002 9.5025 0.637359
85  1 0.0 12.660000000000002 9.5125 0.07
86  2 0.0 13.476490400000001 9.5125 0.647359
87  2 0.0 11.843509600000003 9.5125 0.647359
88  1 0.0 15.817500000000003 9.522499999999999 0.08
89  2 0.0 16.633990400000002 9.522499999999999 0.6573589999999999
90  2 0.0 15.001009600000003 9.522499999999999 0.6573589999999999
91  1 0.0 18.975 9.532499999999999 0.09
92  2 0.0 19.7914904 9.532499999999999 0.6673589999999999
93  2 0.0 18.158509600000002 9.532499999999999 0.6673589999999999
94  1 0.0 22.1325 9.542499999999999 0.09999999999999999
95  2 0.0 22.9489904 9.542499999999999 0.6773589999999999
96  2 0.0 21.3160096 9.542499999999999 0.6773589999999999
97  1 0.0 0.04 12.63 0.04
98  2 0.0 0.8564904 12.63 0.617359
99  2 0.0 -0.7764903999999999 12.63 0.617359
100  1 0.0 3.1975000000000002 12.64 0.05
101  2 0.0 4.0139904 12.64 0.627359
102  2 0.0 2.3810096000000005 12.64 0.627359
103  1 0.0 6.355 12.65 0.060000000000000005
104  2 0.0 7.171490400000001 12.65 0.637359
105  2 0.0 5.5385096 12.65 0.637359
106  1 0.0 9.512500000000001 12.66 0.07
107  2 0.0 10.3289904 12.66 0.647359
108  2 0.0 8.696009600000002 12.66 0.647359
109  1 0.0 12.670000000000002 12.67 0.08
110  2 0.0 13.486490400000001 12.67 0.6573589999999999
111  2 0.0 11.853509600000002 12.67 0.6573589999999999
112  1 0.0 15.827500000000002 12.68 0.09
113  2 0.0 16.643990400000003 12.68 0.6673589999999999
114  2 0.0 15.011009600000003 12.68 0.6673589999999999
115  1 0.0 18.985000000000003 12.69 0.09999999999999999
116  2 0.0 19.801490400000002 12.69 0.6773589999999999
117  2 0.0 18.168509600000004 12.69 0.6773589999999999
118  1 0.0 22.142500000000002 12.7 0.10999999999999999
119  2 0.0 22.9589904 12.7 0.6873589999999999
120  2 0.0 21.326009600000003 12.7 0.6873589999999999
121  1 0.0 0.05 15.787500000000001 0.05
122  2 0.0 0.8664904 15.787500000000001 0.627359
123  2 0.0 -0.7664903999999999 15.787500000000001 0.627359
124  1 0.0 3.2075 15.797500000000001 0.060000000000000005
125  2 0.0 4.0239904 15.797500000000001 0.637359
126  2 0.0 2.3910096000000003 15.797500000000001 0.637359
127  1 0.0 6.365 15.807500000000001 0.07
128  2 0.0 7.1814904 15.807500000000001 0.647359
129  2 0.0 5.5485096 15.807500000000001 0.647359
130  1 0.0 9.5225 15.8175 0.08
131  2 0.0 10.3389904 15.8175 0.6573589999999999
132  2 0.0 8.706009600000002 15.8175 0.6573589999999999
133  1 0.0 12.680000000000001 15.8275 0.09
134  2 0.0 13.4964904 15.8275 0.6673589999999999
135  2 0.0 11.863509600000002 15.8275 0.6673589999999999
136  1 0.0 15.837500000000002 15.8375 0.09999999999999999
137  2 0.0 16.6539904 15.8375 0.6773589999999999
138  2 0.0 15.021009600000003 15.8375 0.6773589999999999
139  1 0.0 18.995 15.8475 0.10999999999999999
140  2 0.0 19.8114904 15.8475 0.6873589999999999
141  2 0.0 18.1785096 15.8475 0.6873589999999999
142  1 0.0 22.1525 15.8575 0.11999999999999998
143  2 0.0 22.9689904 15.8575 0.697359
144  2 0.0 21.3360096 15.8575 0.697359
145  1 0.0 0.060000000000000005 18.945 0.060000000000000005
146  2 0.0 0.8764904 18.945 0.637359
147  2 0.0 -0.7564903999999999 18.945 0.637359
148  1 0.0 3.2175000000000002 18.955000000000002 0.07
149  2 0.0 4.0339904 18.955000000000002 0.647359
150  2 0.0 2.4010096 18.955000000000002 0.647359
151  1 0.0 6.375 18.965000000000003 0.08
152  2 0.0 7.1914904 18.965000000000003 0.6573589999999999
153  2 0.0 5.5585096 18.965000000000003 0.6573589999999999
154  1 0.0 9.5325 18.975000000000005 0.09
155  2 0.0 10.3489904 18.975000000000005 0.6673589999999999
156  2 0.0 8.716009600000001 18.975000000000005 0.6673589999999999
157  1 0.0 12.690000000000001 18.985000000000007 0.09999999999999999
158  2 0.0 13.5064904 18.985000000000007 0.6773589999999999
159  2 0.0 11.873509600000002 18.985000000000007 0.6773589999999999
160  1 0.0 15.847500000000002 18.995000000000008 0.10999999999999999
161  2 0.0 16.663990400000003 18.995000000000008 0.6873589999999999
162  2 0.0 15.031009600000003 18.995000000000008 0.6873589999999999
163  1 0.0 19.005000000000003 19.00500000000001 0.11999999999999998
164  2 0.0 19.821490400000002 19.00500000000001 0.697359
165  2 0.0 18.188509600000003 19.00500000000001 0.697359
166  1 0.0 22.1625 19.01500000000001 0.12999999999999998
167  2 0.0 22.9789904 19.01500000000001 0.707359
168  2 0.0 21.346009600000002 19.01500000000001 0.707359
169  1 0.0 0.07 22.1025 0.07
170  2 0.0 0.8864904 22.1025 0.647359
171  2 0.0 -0.7464903999999999 22.1025 0.647359
172  1 0.0 3.2275 22.1125 0.08
173  2 0.0 4.0439904 22.1125 0.6573589999999999
174  2 0.0 2.4110096 22.1125 0.6573589999999999
175  1 0.0 6.385 22.122500000000002 0.09
176  2 0.0 7.2014904 22.122500000000002 0.6673589999999999
177  2 0.0 5.5685096 22.122500000000002 0.6673589999999999
178  1 0.0 9.5425 22.132500000000004 0.09999999999999999
179  2 0.0 10.3589904 22.132500000000004 0.6773589999999999
180  2 0.0 8.726009600000001 22.132500000000004 0.6773589999999999
181  1 0.0 12.700000000000001 22.142500000000005 0.10999999999999999
182  2 0.0 13.5164904 22.142500000000005 0.6873589999999999
183  2 0.0 11.883509600000002 22.142500000000005 0.6873589999999999
184  1 0.0 15.857500000000002 22.152500000000007 0.11999999999999998
185  2 0.0 16.6739904 22.152500000000007 0.697359
186  2 0.0 15.041009600000002 22.152500000000007 0.697359
187  1 0.0 19.015 22.16250000000001 0.12999999999999998
188  2 0.0 19.8314904 22.16250000000001 0.707359
189  2 0.0 18.1985096 22.16250000000001 0.707359
190  1 0.0 22.1725 22.17250000000001 0.13999999999999999
191  2 0.0 22.9889904 22.17250000000001 0.717359
192  2 0.0 21.3560096 22.17250000000001 0.717359
193  1 0.0 0.01 0.0 3.1575
194  2 0.0 0.8264904 0.0 3.734859
195  2 0.0 -0.8064903999999999 0.0 3.734859
196  1 0.0 3.1675 0.01 3.1675
197  2 0.0 3.9839903999999997 0.01 3.744859
198  2 0.0 2.3510096000000003 0.01 3.744859
199  1 0.0 6.325 0.02 3.1774999999999998
200  2 0.0 7.1414904 0.02 3.7548589999999997
201  2 0.0 5.5085096 0.02 3.7548589999999997
202  1 0.0 9.4825 0.03 3.1874999999999996
203  2 0.0 10.2989904 0.03 3.7648589999999995
204  2 0.0 8.6660096 0.03 3.7648589999999995
205  1 0.0 12.64 0.04 3.1974999999999993
206  2 0.0 13.4564904 0.04 3.7748589999999993
207  2 0.0 11.823509600000001 0.04 3.7748589999999993
208  1 0.0 15.797500000000001 0.05 3.207499999999999
209  2 0.0 16.613990400000002 0.05 3.784858999999999
210  2 0.0 14.981009600000002 0.05 3.784858999999999
211  1 0.0 18.955000000000002 0.060000000000000005 3.217499999999999
212  2 0.0 19.7714904 0.060000000000000005 3.794858999999999
213  2 0.0 18.138509600000003 0.060000000000000005 3.794858999999999
214  1 0.0 22.1125 0.07 3.2274999999999987
215  2 0.0 22.9289904 0.07 3.8048589999999987
216  2 0.0 21.2960096 0.07 3.8048589999999987
217  1 0.0 0.02 3.1575 3.1675
218  2 0.0 0.8364904 3.1575 3.744859
219  2 0.0 -0.7964903999999999 3.1575 3.744859
220  1 0.0 3.1775 3.1675 3.1774999999999998
221  2 0.0 3.9939904000000004 3.1675 3.7548589999999997
222  2 0.0 2.3610096 3.1675 3.7548589999999997
223  1 0.0 6.335000000000001 3.1774999999999998 3.1874999999999996
224  2 0.0 7.151490400000001 3.1774999999999998 3.7648589999999995
225  2 0.0 5.518509600000001 3.1774999999999998 3.7648589999999995
226  1 0.0 9.492500000000001 3.1874999999999996 3.1974999999999993
227  2 0.0 10.3089904 3.1874999999999996 3.7748589999999993
228  2 0.0 8.676009600000002 3.1874999999999996 3.7748589999999993
229  1 0.0 12.650000000000002 3.1974999999999993 3.207499999999999
230  2 0.0 13.466490400000001 3.1974999999999993 3.784858999999999
231  2 0.0 11.833509600000003 3.1974999999999993 3.784858999999999
232  1 0.0 15.807500000000003 3.207499999999999 3.217499999999999
233  2 0.0 16.623990400000004 3.207499999999999 3.794858999999999
234  2 0.0 14.991009600000003 3.207499999999999 3.794858999999999
235  1 0.0 18.965000000000003 3.217499999999999 3.2274999999999987
236  2 0.0 19.781490400000003 3.217499999999999 3.8048589999999987
237  2 0.0 18.148509600000004 3.217499999999999 3.8048589999999987
238  1 0.0 22.122500000000002 3.2274999999999987 3.2374999999999985
239  2 0.0 22.9389904 3.2274999999999987 3.8148589999999984
240  2 0.0 21.306009600000003 3.2274999999999987 3.8148589999999984
241  1 0.0 0.03 6.315 3.1774999999999998
242  2 0.0 0.8464904 6.315 3.7548589999999997
243  2 0.0 -0.7864903999999999 6.315 3.7548589999999997
244  1 0.0 3.1875 6.325 3.1874999999999996
245  2 0.0 4.0039904 6.325 3.7648589999999995
246  2 0.0 2.3710096 6.325 3.7648589999999995
247  1 0.0 6.345000000000001 6.335 3.1974999999999993
248  2 0.0 7.161490400000001 6.335 3.7748589999999993
249  2 0.0 5.5285096000000005 6.335 3.7748589999999993
250  1 0.0 9.502500000000001 6.345 3.207499999999999
251  2 0.0 10.3189904 6.345 3.784858999999999
252  2 0.0 8.686009600000002 6.345 3.784858999999999
253  1 0.0 12.660000000000002 6.3549999999999995 3.217499999999999
254  2 0.0 13.476490400000001 6.3549999999999995 3.794858999999999
255  2 0.0 11.843509600000003 6.3549999999999995 3.794858999999999
256  1 0.0 15.817500000000003 6.364999999999999 3.2274999999999987
257  2 0.0 16.633990400000002 6.364999999999999 3.8048589999999987
258  2 0.0 15.001009600000003 6.364999999999999 3.8048589999999987
259  1 0.0 18.975 6.374999999999999 3.2374999999999985
260  2 0.0 19.7914904 6.374999999999999 3.8148589999999984
261  2 0.0 18.158509600000002 6.374999999999999 3.8148589999999984
262  1 0.0 22.1325 6.384999999999999 3.2474999999999983
263  2 0.0 22.9489904 6.384999999999999 3.8248589999999982
264  2 0.0 21.3160096 6.384999999999999 3.8248589999999982
265  1 0.0 0.04 9.4725 3.1874999999999996
266  2 0.0 0.8564904 9.4725 3.7648589999999995
267  2 0.0 -0.7764903999999999 9.4725 3.7648589999999995
268  1 0.0 3.1975000000000002 9.4825 3.1974999999999993
269  2 0.0 4.0139904 9.4825 3.7748589999999993
270  2 0.0 2.3810096000000005 9.4825 3.7748589999999993
271  1 0.0 6.355 9.4925 3.207499999999999
272  2 0.0 7.171490400000001 9.4925 3.784858999999999
273  2 0.0 5.5385096 9.4925 3.784858999999999
274  1 0.0 9.512500000000001 9.5025 3.217499999999999
275  2 0.0 10.3289904 9.5025 3.794858999999999
276  2 0.0 8.696009600000002 9.5025 3.794858999999999
277  1 0.0 12.670000000000002 9.5125 3.2274999999999987
278  2 0.0 13.486490400000001 9.5125 3.8048589999999987
279  2 0.0 11.853509600000002 9.5125 3.8048589999999987
280  1 0.0 15.827500000000002 9.522499999999999 3.2374999999999985
281  2 0.0 16.643990400000003 9.522499999999999 3.8148589999999984
282  2 0.0 15.011009600000003 9.522499999999999 3.8148589999999984
283  1 0.0 18.985000000000003 9.532499999999999 3.2474999999999983
284  2 0.0 19.801490400000002 9.532499999999999 3.8248589999999982
285  2 0.0 18.168509600000004 9.532499999999999 3.8248589999999982
286  1 0.0 22.142500000000002 9.542499999999999 3.257499999999998
287  2 0.0 22.9589904 9.542499999999999 3.834858999999998
288  2 0.0 21.326009600000003 9.542499999999999 3.834858999999998
289  1 0.0 0.05 12.63 3.1974999999999993
290  2 0.0 0.8664904 12.63 3.7748589999999993
291  2 0.0 -0.7664903999999999 12.63 3.7748589999999993
292  1 0.0 3.2075 12.64 3.207499999999999
293  2 0.0 4.0239904 12.64 3.784858999999999
294  2 0.0 2.3910096000000003 12.64 3.784858999999999
295  1 0.0 6.365 12.65 3.217499999999999
296  2 0.0 7.1814904 12.65 3.794858999999999
297  2 0.0 5.5485096 12.65 3.794858999999999
298 1 0.0 9.5225 12.66 3.2274999999999987
299 2 0.0 10.3389904 12.66 3.8048589999999987
300 2 0.0 8.706009600000002 12.66 3.8048589999999987
301 1 0.0 12.680000000000001 12.67 3.2374999999999985
302 2 0.0 13.4964904 12.67 3.8148589999999984
303 2 0.0 11.863509600000002 12.67 3.8148589999999984
304 1 0.0 15.837500000000002 12.68 3.2474999999999983
305 2 0.0 16.6539904 12.68 3.8248589999999982
306 2 0.0 15.021009600000003 12.68 3.8248589999999982
307 1 0.0 18.995 12.69 3.257499999999998
308 2 0.0 19.8114904 12.69 3.834858999999998
309 2 0.0 18.1785096 12.69 3.834858999999998
310 1 0.0 22.1525 12.7 3.267499999999998
311 2 0.0 22.9689904 12.7 3.844858999999998
312 2 0.0 21.3360096 12.7 3.844858999999998
313 1 0.0 0.060000000000000005 15.787500000000001 3.207499999999999
314 2 0.0 0.8764904 15.787500000000001 3.784858999999999
315 2 0.0 -0.7564903999999999 15.787500000000001 3.784858999999999
316 1 0.0 3.2175000000000002 15.797500000000001 3.217499999999999
317 2 0.0 4.0339904 15.797500000000001 3.794858999999999
318 2 0.0 2.4010096 15.797500000000001 3.794858999999999
319 1 0.0 6.375 15.807500000000001 3.2274999999999987
320 2 0.0 7.1914904 15.807500000000001 3.8048589999999987
321 2 0.0 5.5585096 15.807500000000001 3.8048589999999987
322 1 0.0 9.5325 15.8175 3.2374999999999985
323 2 0.0 10.3489904 15.8175 3.8148589999999984
324 2 0.0 8.716009600000001 15.8175 3.8148589999999984
325 1 0.0 12.690000000000001 15.8275 3.2474999999999983
326 2 0.0 13.5064904 15.8275 3.8248589999999982
327 2 0.0 11.873509600000002 15.8275 3.8248589999999982
328 1 0.0 15.847500000000002 15.8375 3.257499999999998
329 2 0.0 16.663990400000003 15.8375 3.834858999999998
330 2 0.0 15.031009600000003 15.8375 3.834858999999998
331 1 0.0 19.005000000000003 15.8475 3.267499999999998
332 2 0.0 19.821490400000002 15.8475 3.844858999999998
333 2 0.0 18.188509600000003 15.8475 3.844858999999998
334 1 0.0 22.1625 15.8575 3.2774999999999976
335 2 0.0 22.9789904 15.8575 3.8548589999999976
336 2 0.0 21.346009600000002 15.8575 3.8548589999999976
337 1 0.0 0.07 18.945 3.217499999999999
338 2 0.0 0.8864904 18.945 3.794858999999999
339 2 0.0 -0.7464903999999999 18.945 3.794858999999999
340 1 0.0 3.2275 18.955000000000002 3.2274999999999987
341 2 0.0 4.0439904 18.955000000000002 3.8048589999999987
342 2 0.0 2.4110096 18.955000000000002 3.8048589999999987
343 1 0.0 6.385 18.965000000000003 3.2374999999999985
344 2 0.0 7.2014904 18.965000000000003 3.8148589999999984
345 2 0.0 5.5685096 18.965000000000003 3.8148589999999984
346 1 0.0 9.5425 18.975000000000005 3.2474999999999983
347 2 0.0 10.3589904 18.975000000000005 3.8248589999999982
348 2 0.0 8.726009600000001 18.975000000000005 3.8248589999999982
349 1 0.0 12.700000000000001 18.985000000000007 3.257499999999998
350 2 0.0 13.5164904 18.985000000000007 3.834858999999998
351 2 0.0 11.883509600000002 18.985000000000007 3.834858999999998
352 1 0.0 15.857500000000002 18.995000000000008 3.267499999999998
353 2 0.0 16.6739904 18.995000000000008 3.844858999999998
354 2 0.0 15.041009600000002 18.995000000000008 3.844858999999998
355 1 0.0 19.015 19.00500000000001 3.2774999999999976
356 2 0.0 19.8314904 19.00500000000001 3.8548589999999976
357 2 0.0 18.1985096 19.00500000000001 3.8548589999999976
358 1 0.0 22.1725 19.01500000000001 3.2874999999999974
359 2 0.0 22.9889904 19.01500000000001 3.8648589999999974
360 2 0.0 21.3560096 19.01500000000001 3.8648589999999974
361 1 0.0 0.08 22.1025 3.2274999999999987
362 2 0.0 0.8964903999999999 22.1025 3.8048589999999987
363 2 0.0 -0.7364904 22.1025 3.8048589999999987
364 1 0.0 3.2375000000000003 22.1125 3.2374999999999985
365 2 0.0 4.0539904 22.1125 3.8148589999999984
366 2 0.0 2.4210096000000005 22.1125 3.8148589999999984
367 1 0.0 6.3950000000000005 22.122500000000002 3.2474999999999983
368 2 0.0 7.211490400000001 22.122500000000002 3.8248589999999982
369 2 0.0 5.5785096 22.122500000000002 3.8248589999999982
370 1 0.0 9.5525 22.132500000000004 3.257499999999998
371 2 0.0 10.3689904 22.132500000000004 3.834858999999998
372 2 0.0 8.736009600000001 22.132500000000004 3.834858999999998
373 1 0.0 12.71 22.142500000000005 3.267499999999998
374 2 0.0 13.5264904 22.142500000000005 3.844858999999998
375 2 0.0 11.893509600000002 22.142500000000005 3.844858999999998
376 1 0.0 15.867500000000001 22.152500000000007 3.2774999999999976
377 2 0.0 16.683990400000003 22.152500000000007 3.8548589999999976
378 2 0.0 15.051009600000002 22.152500000000007 3.8548589999999976
379 1 0.0 19.025000000000002 22.16250000000001 3.2874999999999974
380 2 0.0 19.8414904 22.16250000000001 3.8648589999999974
381 2 0.0 18.208509600000003 22.16250000000001 3.8648589999999974
382 1 0.0 22.1825 22.17250000000001 3.297499999999997
383 2 0.0 22.9989904 22.17250000000001 3.874858999999997
384 2 0.0 21.3660096 22.17250000000001 3.874858999999997
385 1 0.0 0.02 0.0 6.315
386 2 0.0 0.8364904 0.0 6.892359000000001
387 2 0.0 -0.7964903999999999 0.0 6.892359000000001
388 1 0.0 3.1775 0.01 6.325
389 2 0.0 3.9939904000000004 0.01 6.902359000000001
390 2 0.0 2.3610096 0.01 6.902359000000001
391 1 0.0 6.335000000000001 0.02 6.335
392 2 0.0 7.151490400000001 0.02 6.912359
393 2 0.0 5.518509600000001 0.02 6.912359
394 1 0.0 9.492500000000001 0.03 6.345
395 2 0.0 10.3089904 0.03 6.922359
396 2 0.0 8.676009600000002 0.03 6.922359
397 1 0.0 12.650000000000002 0.04 6.3549999999999995
398 2 0.0 13.466490400000001 0.04 6.932359
399 2 0.0 11.833509600000003 0.04 6.932359
400 1 0.0 15.807500000000003 0.05 6.364999999999999
401 2 0.0 16.623990400000004 0.05 6.942359
402 2 0.0 14.991009600000003 0.05 6.942359
403 1 0.0 18.965000000000003 0.060000000000000005 6.374999999999999
404 2 0.0 19.781490400000003 0.060000000000000005 6.9523589999999995
405 2 0.0 18.148509600000004 0.060000000000000005 6.9523589999999995
406 1 0.0 22.122500000000002 0.07 6.384999999999999
407 2 0.0 22.9389904 0.07 6.962358999999999
408 2 0.0 21.306009600000003 0.07 6.962358999999999
409 1 0.0 0.03 3.1575 6.325
410 2 0.0 0.8464904 3.1575 6.902359000000001
411 2 0.0 -0.7864903999999999 3.1575 6.902359000000001
412 1 0.0 3.1875 3.1675 6.335
413 2 0.0 4.0039904 3.1675 6.912359
414 2 0.0 2.3710096 3.1675 6.912359
415 1 0.0 6.345000000000001 3.1774999999999998 6.345
416 2 0.0 7.161490400000001 3.1774999999999998 6.922359
417 2 0.0 5.5285096000000005 3.1774999999999998 6.922359
418 1 0.0 9.502500000000001 3.1874999999999996 6.3549999999999995
419 2 0.0 10.3189904 3.1874999999999996 6.932359
420 2 0.0 8.686009600000002 3.1874999999999996 6.932359
421 1 0.0 12.660000000000002 3.1974999999999993 6.364999999999999
422 2 0.0 13.476490400000001 3.1974999999999993 6.942359
423 2 0.0 11.843509600000003 3.1974999999999993 6.942359
424 1 0.0 15.817500000000003 3.207499999999999 6.374999999999999
425 2 0.0 16.633990400000002 3.207499999999999 6.9523589999999995
426 2 0.0 15.001009600000003 3.207499999999999 6.9523589999999995
427 1 0.0 18.975 3.217499999999999 6.384999999999999
428 2 0.0 19.7914904 3.217499999999999 6.962358999999999
429 2 0.0 18.158509600000002 3.217499999999999 6.962358999999999
430 1 0.0 22.1325 3.2274999999999987 6.394999999999999
431 2 0.0 22.9489904 3.2274999999999987 6.972358999999999
432 2 0.0 21.3160096 3.2274999999999987 6.972358999999999
433 1 0.0 0.04 6.315 6.335
434 2 0.0 0.8564904 6.315 6.912359
435 2 0.0 -0.7764903999999999 6.315 6.912359
436 1 0.0 3.1975000000000002 6.325 6.345
437 2 0.0 4.0139904 6.325 6.922359
438 2 0.0 2.3810096000000005 6.325 6.922359
439 1 0.0 6.355 6.335 6.3549999999999995
440 2 0.0 7.171490400000001 6.335 6.932359
441 2 0.0 5.5385096 6.335 6.932359
442 1 0.0 9.512500000000001 6.345 6.364999999999999
443 2 0.0 10.3289904 6.345 6.942359
444 2 0.0 8.696009600000002 6.345 6.942359
445 1 0.0 12.670000000000002 6.3549999999999995 6.374999999999999
446 2 0.0 13.486490400000001 6.3549999999999995 6.9523589999999995
447 2 0.0 11.853509600000002 6.3549999999999995 6.9523589999999995
448 1 0.0 15.827500000000002 6.364999999999999 6.384999999999999
449 2 0.0 16.643990400000003 6.364999999999999 6.962358999999999
450 2 0.0 15.011009600000003 6.364999999999999 6.962358999999999
451 1 0.0 18.985000000000003 6.374999999999999 6.394999999999999
452 2 0.0 19.801490400000002 6.374999999999999 6.972358999999999
453 2 0.0 18.168509600000004 6.374999999999999 6.972358999999999
454 1 0.0 22.142500000000002 6.384999999999999 6.4049999999999985
455 2 0.0 22.9589904 6.384999999999999 6.982358999999999
456 2 0.0 21.326009600000003 6.384999999999999 6.982358999999999
457 1 0.0 0.05 9.4725 6.345
458 2 0.0 0.8664904 9.4725 6.922359
459 2 0.0 -0.7664903999999999 9.4725 6.922359
460 1 0.0 3.2075 9.4825 6.3549999999999995
461 2 0.0 4.0239904 9.4825 6.932359
462 2 0.0 2.3910096000000003 9.4825 6.932359
463 1 0.0 6.365 9.4925 6.364999999999999
464 2 0.0 7.1814904 9.4925 6.942359
465 2 0.0 5.5485096 9.4925 6.942359
466 1 0.0 9.5225 9.5025 6.374999999999999
467 2 0.0 10.3389904 9.5025 6.9523589999999995
468 2 0.0 8.706009600000002 9.5025 6.9523589999999995
469 1 0.0 12.680000000000001 9.5125 6.384999999999999
470 2 0.0 13.4964904 9.5125 6.962358999999999
471 2 0.0 11.863509600000002 9.5125 6.962358999999999
472 1 0.0 15.837500000000002 9.522499999999999 6.394999999999999
473 2 0.0 16.6539904 9.522499999999999 6.972358999999999
474 2 0.0 15.021009600000003 9.522499999999999 6.972358999999999
475 1 0.0 18.995 9.532499999999999 6.4049999999999985
476 2 0.0 19.8114904 9.532499999999999 6.982358999999999
477 2 0.0 18.1785096 9.532499999999999 6.982358999999999
478 1 0.0 22.1525 9.542499999999999 6.414999999999998
479 2 0.0 22.9689904 9.542499999999999 6.992358999999999
480 2 0.0 21.3360096 9.542499999999999 6.992358999999999
481 1 0.0 0.060000000000000005 12.63 6.3549999999999995
482 2 0.0 0.8764904 12.63 6.932359
483 2 0.0 -0.7564903999999999 12.63 6.932359
484 1 0.0 3.2175000000000002 12.64 6.364999999999999
485 2 0.0 4.0339904 12.64 6.942359
486 2 0.0 2.4010096 12.64 6.942359
487 1 0.0 6.375 12.65 6.374999999999999
488 2 0.0 7.1914904 12.65 6.9523589999999995
489 2 0.0 5.5585096 12.65 6.9523589999999995
490 1 0.0 9.5325 12.66 6.384999999999999
491 2 0.0 10.3489904 12.66 6.962358999999999
492 2 0.0 8.716009600000001 12.66 6.962358999999999
493 1 0.0 12.690000000000001 12.67 6.394999999999999
494 2 0.0 13.5064904 12.67 6.972358999999999
495 2 0.0 11.873509600000002 12.67 6.972358999999999
496 1 0.0 15.847500000000002 12.68 6.4049999999999985
497 2 0.0 16.663990400000003 12.68 6.982358999999999
498 2 0.0 15.031009600000003 12.68 6.982358999999999
499 1 0.0 19.005000000000003 12.69 6.414999999999998
500 2 0.0 19.821490400000002 12.69 6.992358999999999
501 2 0.0 18.188509600000003 12.69 6.992358999999999
502 1 0.0 22.1625 12.7 6.424999999999998
503 2 0.0 22.9789904 12.7 7.0023589999999984
504 2 0.0 21.346009600000002 12.7 7.0023589999999984
505 1 0.0 0.07 15.787500000000001 6.364999999999999
506 2 0.0 0.8864904 15.787500000000001 6.942359
507 2 0.0 -0.7464903999999999 15.787500000000001 6.942359
508 1 0.0 3.2275 15.797500000000001 6.374999999999999
509 2 0.0 4.0439904 15.797500000000001 6.9523589999999995
510 2 0.0 2.4110096 15.797500000000001 6.9523589999999995
511 1 0.0 6.385 15.807500000000001 6.384999999999999
512 2 0.0 7.2014904 15.807500000000001 6.962358999999999
513 2 0.0 5.5685096 15.807500000000001 6.962358999999999
514 1 0.0 9.5425 15.8175 6.394999999999999
515 2 0.0 10.3589904 15.8175 6.972358999999999
516 2 0.0 8.726009600000001 15.8175 6.972358999999999
517 1 0.0 12.700000000000001 15.8275 6.4049999999999985
518 2 0.0 13.5164904 15.8275 6.982358999999999
519 2 0.0 11.883509600000002 15.8275 6.982358999999999
520 1 0.0 15.857500000000002 15.8375 6.414999999999998
521 2 0.0 16.6739904 15.8375 6.992358999999999
522 2 0.0 15.041009600000002 15.8375 6.992358999999999
523 1 0.0 19.015 15.8475 6.424999999999998
524 2 0.0 19.8314904 15.8475 7.0023589999999984
525 2 0.0 18.1985096 15.8475 7.0023589999999984
526 1 0.0 22.1725 15.8575 6.434999999999998
527 2 0.0 22.9889904 15.8575 7.012358999999998
528 2 0.0 21.3560096 15.8575 7.012358999999998
529 1 0.0 0.08 18.945 6.374999999999999
530 2 0.0 0.8964903999999999 18.945 6.9523589999999995
531 2 0.0 -0.7364904 18.945 6.9523589999999995
532 1 0.0 3.2375000000000003 18.955000000000002 6.384999999999999
533 2 0.0 4.0539904 18.955000000000002 6.962358999999999
534 2 0.0 2.4210096000000005 18.955000000000002 6.962358999999999
535 1 0.0 6.3950000000000005 18.965000000000003 6.394999999999999
536 2 0.0 7.211490400000001 18.965000000000003 6.972358999999999
537 2 0.0 5.5785096 18.965000000000003 6.972358999999999
538 1 0.0 9.5525 18.975000000000005 6.4049999999999985
539 2 0.0 10.3689904 18.975000000000005 6.982358999999999
540 2 0.0 8.736009600000001 18.975000000000005 6.982358999999999
541 1 0.0 12.71 18.985000000000007 6.414999999999998
542 2 0.0 13.5264904 18.985000000000007 6.992358999999999
543 2 0.0 11.893509600000002 18.985000000000007 6.992358999999999
544 1 0.0 15.867500000000001 18.995000000000008 6.424999999999998
545 2 0.0 16.683990400000003 18.995000000000008 7.0023589999999984
546 2 0.0 15.051009600000002 18.995000000000008 7.0023589999999984
547 1 0.0 19.025000000000002 19.00500000000001 6.434999999999998
548 2 0.0 19.8414904 19.00500000000001 7.012358999999998
549 2 0.0 18.208509600000003 19.00500000000001 7.012358999999998
550 1 0.0 22.1825 19.01500000000001 6.444999999999998
551 2 0.0 22.9989904 19.01500000000001 7.022358999999998
552 2 0.0 21.3660096 19.01500000000001 7.022358999999998
553 1 0.0 0.09 22.1025 6.384999999999999
554 2 0.0 0.9064903999999999 22.1025 6.962358999999999
555 2 0.0 -0.7264904 22.1025 6.962358999999999
556 1 0.0 3.2475 22.1125 6.394999999999999
557 2 0.0 4.0639904 22.1125 6.972358999999999
558 2 0.0 2.4310096000000003 22.1125 6.972358999999999
559 1 0.0 6.405 22.122500000000002 6.4049999999999985
560 2 0.0 7.2214904 22.122500000000002 6.982358999999999
561 2 0.0 5.5885096 22.122500000000002 6.982358999999999
562 1 0.0 9.5625 22.132500000000004 6.414999999999998
563 2 0.0 10.3789904 22.132500000000004 6.992358999999999
564 2 0.0 8.7460096 22.132500000000004 6.992358999999999
565 1 0.0 12.72 22.142500000000005 6.424999999999998
566 2 0.0 13.5364904 22.142500000000005 7.0023589999999984
567 2 0.0 11.903509600000001 22.142500000000005 7.0023589999999984
568 1 0.0 15.877500000000001 22.152500000000007 6.434999999999998
569 2 0.0 16.6939904 22.152500000000007 7.012358999999998
570 2 0.0 15.061009600000002 22.152500000000007 7.012358999999998
571 1 0.0 19.035 22.16250000000001 6.444999999999998
572 2 0.0 19.8514904 22.16250000000001 7.022358999999998
573 2 0.0 18.2185096 22.16250000000001 7.022358999999998
574 1 0.0 22.1925 22.17250000000001 6.454999999999997
575 2 0.0 23.0089904 22.17250000000001 7.032358999999998
576 2 0.0 21.3760096 22.17250000000001 7.032358999999998
577 1 0.0 0.03 0.0 9.4725
578 2 0.0 0.8464904 0.0 10.049859
579 2 0.0 -0.7864903999999999 0.0 10.049859
580 1 0.0 3.1875 0.01 9.4825